 Entering Gaussian System, Link 0=g09
 Input=dinitro_Cl_F-ts-b3lyp_d3bj-631+gd-dmf_pcm.gjf
 Output=dinitro_Cl_F-ts-b3lyp_d3bj-631+gd-dmf_pcm.out
 Initial command:
 /share/sw/non-free/gaussian/g09/l1.exe "/scratch/users/ekwan16/bigmem/Gau-68801.inp" -scrdir="/scratch/users/ekwan16/bigmem/"
 Entering Link 1 = /share/sw/non-free/gaussian/g09/l1.exe PID=     68802.
  
 Copyright (c) 1988,1990,1992,1993,1995,1998,2003,2009,2013,
            Gaussian, Inc.  All Rights Reserved.
  
 This is part of the Gaussian(R) 09 program.  It is based on
 the Gaussian(R) 03 system (copyright 2003, Gaussian, Inc.),
 the Gaussian(R) 98 system (copyright 1998, Gaussian, Inc.),
 the Gaussian(R) 94 system (copyright 1995, Gaussian, Inc.),
 the Gaussian 92(TM) system (copyright 1992, Gaussian, Inc.),
 the Gaussian 90(TM) system (copyright 1990, Gaussian, Inc.),
 the Gaussian 88(TM) system (copyright 1988, Gaussian, Inc.),
 the Gaussian 86(TM) system (copyright 1986, Carnegie Mellon
 University), and the Gaussian 82(TM) system (copyright 1983,
 Carnegie Mellon University). Gaussian is a federally registered
 trademark of Gaussian, Inc.
  
 This software contains proprietary and confidential information,
 including trade secrets, belonging to Gaussian, Inc.
  
 This software is provided under written license and may be
 used, copied, transmitted, or stored only in accord with that
 written license.
  
 The following legend is applicable only to US Government
 contracts under FAR:
  
                    RESTRICTED RIGHTS LEGEND
  
 Use, reproduction and disclosure by the US Government is
 subject to restrictions as set forth in subparagraphs (a)
 and (c) of the Commercial Computer Software - Restricted
 Rights clause in FAR 52.227-19.
  
 Gaussian, Inc.
 340 Quinnipiac St., Bldg. 40, Wallingford CT 06492
  
  
 ---------------------------------------------------------------
 Warning -- This program may not be used in any manner that
 competes with the business of Gaussian, Inc. or will provide
 assistance to any competitor of Gaussian, Inc.  The licensee
 of this program is prohibited from giving any competitor of
 Gaussian, Inc. access to this program.  By using this program,
 the user acknowledges that Gaussian, Inc. is engaged in the
 business of creating and licensing software in the field of
 computational chemistry and represents and warrants to the
 licensee that it is not a competitor of Gaussian, Inc. and that
 it will not use this program in any manner prohibited above.
 ---------------------------------------------------------------
  

 Cite this work as:
 Gaussian 09, Revision D.01,
 M. J. Frisch, G. W. Trucks, H. B. Schlegel, G. E. Scuseria, 
 M. A. Robb, J. R. Cheeseman, G. Scalmani, V. Barone, B. Mennucci, 
 G. A. Petersson, H. Nakatsuji, M. Caricato, X. Li, H. P. Hratchian, 
 A. F. Izmaylov, J. Bloino, G. Zheng, J. L. Sonnenberg, M. Hada, 
 M. Ehara, K. Toyota, R. Fukuda, J. Hasegawa, M. Ishida, T. Nakajima, 
 Y. Honda, O. Kitao, H. Nakai, T. Vreven, J. A. Montgomery, Jr., 
 J. E. Peralta, F. Ogliaro, M. Bearpark, J. J. Heyd, E. Brothers, 
 K. N. Kudin, V. N. Staroverov, T. Keith, R. Kobayashi, J. Normand, 
 K. Raghavachari, A. Rendell, J. C. Burant, S. S. Iyengar, J. Tomasi, 
 M. Cossi, N. Rega, J. M. Millam, M. Klene, J. E. Knox, J. B. Cross, 
 V. Bakken, C. Adamo, J. Jaramillo, R. Gomperts, R. E. Stratmann, 
 O. Yazyev, A. J. Austin, R. Cammi, C. Pomelli, J. W. Ochterski, 
 R. L. Martin, K. Morokuma, V. G. Zakrzewski, G. A. Voth, 
 P. Salvador, J. J. Dannenberg, S. Dapprich, A. D. Daniels, 
 O. Farkas, J. B. Foresman, J. V. Ortiz, J. Cioslowski, 
 and D. J. Fox, Gaussian, Inc., Wallingford CT, 2013.
 
 ******************************************
 Gaussian 09:  ES64L-G09RevD.01 24-Apr-2013
                 8-Jul-2017 
 ******************************************
 %nprocshared=32
 Will use up to   32 processors via shared memory.
 %mem=256GB
 ----------------------------------------------------------------------
 #p opt=(calcfc,ts,noeigentest) freq=(noraman,hpmodes) b3lyp scrf=(solv
 ent=n,n-dimethylformamide,pcm) empiricaldispersion=gd3bj 6-31+g*
 ----------------------------------------------------------------------
 1/5=1,10=4,11=1,14=-1,18=20,26=3,38=1/1,3;
 2/9=110,12=2,17=6,18=5,40=1/2;
 3/5=1,6=6,7=11,11=2,16=1,25=1,30=1,70=2201,71=2,72=148,74=-5,124=41,140=1/1,2,3;
 4//1;
 5/5=2,38=5,53=148/2;
 8/6=4,10=90,11=11/1;
 11/6=1,8=1,9=11,15=111,16=1/1,2,10;
 10/6=1,13=1/2;
 6/7=2,8=2,9=2,10=2,28=1/1;
 7/10=1,18=20,25=1/1,2,3,16;
 1/5=1,10=4,11=1,14=-1,18=20,26=3/3(2);
 2/9=110/2;
 99//99;
 2/9=110/2;
 3/5=1,6=6,7=11,11=2,16=1,25=1,30=1,70=2205,71=1,72=148,74=-5,124=41/1,2,3;
 4/5=5,16=3,69=1/1;
 5/5=2,38=5,53=148/2;
 7//1,2,3,16;
 1/5=1,11=1,14=-1,18=20,26=3/3(-5);
 2/9=110/2;
 6/7=2,8=2,9=2,10=2,19=2,28=1/1;
 99/9=1/99;
 Leave Link    1 at Sat Jul  8 04:09:36 2017, MaxMem= 34359738368 cpu:         2.7
 (Enter /share/sw/non-free/gaussian/g09/l101.exe)
 -----
 title
 -----
 Symbolic Z-matrix:
 Charge = -1 Multiplicity = 1
 C                    -1.12754   0.83871  -0.09578 
 C                    -2.05118  -0.18556   0.04303 
 C                    -1.64804  -1.5411   -0.06015 
 C                    -0.3289   -1.84127  -0.25651 
 C                     0.21857   0.54161  -0.30029 
 H                    -1.44116   1.87634  -0.04914 
 H                    -2.39381  -2.3304   -0.0055 
 C                     0.68496  -0.82039  -0.2894 
 H                    -0.00437  -2.8728   -0.37053 
 N                    -3.434     0.13742   0.25533 
 O                    -4.24599  -0.79449   0.35767 
 O                    -3.76962   1.3286    0.33077 
 F                     1.4397   -1.0128    1.36654 
 N                     1.11507   1.66425  -0.43004 
 O                     2.33404   1.47474  -0.36196 
 O                     0.62561   2.79079  -0.59989 
 Cl                    2.11118  -1.28719  -1.24239 
 O                     3.79892   0.10978   1.92897 
 H                     2.93961  -0.3223    1.71617 
 H                     3.85403   0.80749   1.26404 
 
 Add virtual bond connecting atoms H19        and F13        Dist= 3.19D+00.
 Add virtual bond connecting atoms F13        and C8         Dist= 3.46D+00.
 NAtoms=     20 NQM=       20 NQMF=       0 NMMI=      0 NMMIF=      0
                NMic=       0 NMicF=      0.
                    Isotopes and Nuclear Properties:
 (Nuclear quadrupole moments (NQMom) in fm**2, nuclear magnetic moments (NMagM)
  in nuclear magnetons)

  Atom         1           2           3           4           5           6           7           8           9          10
 IAtWgt=          12          12          12          12          12           1           1          12           1          14
 AtmWgt=  12.0000000  12.0000000  12.0000000  12.0000000  12.0000000   1.0078250   1.0078250  12.0000000   1.0078250  14.0030740
 NucSpn=           0           0           0           0           0           1           1           0           1           2
 AtZEff=   0.0000000   0.0000000   0.0000000   0.0000000   0.0000000   0.0000000   0.0000000   0.0000000   0.0000000   0.0000000
 NQMom=    0.0000000   0.0000000   0.0000000   0.0000000   0.0000000   0.0000000   0.0000000   0.0000000   0.0000000   2.0440000
 NMagM=    0.0000000   0.0000000   0.0000000   0.0000000   0.0000000   2.7928460   2.7928460   0.0000000   2.7928460   0.4037610
 AtZNuc=   6.0000000   6.0000000   6.0000000   6.0000000   6.0000000   1.0000000   1.0000000   6.0000000   1.0000000   7.0000000

  Atom        11          12          13          14          15          16          17          18          19          20
 IAtWgt=          16          16          19          14          16          16          35          16           1           1
 AtmWgt=  15.9949146  15.9949146  18.9984033  14.0030740  15.9949146  15.9949146  34.9688527  15.9949146   1.0078250   1.0078250
 NucSpn=           0           0           1           2           0           0           3           0           1           1
 AtZEff=   0.0000000   0.0000000   0.0000000   0.0000000   0.0000000   0.0000000   0.0000000   0.0000000   0.0000000   0.0000000
 NQMom=    0.0000000   0.0000000   0.0000000   2.0440000   0.0000000   0.0000000  -8.1650000   0.0000000   0.0000000   0.0000000
 NMagM=    0.0000000   0.0000000   2.6288670   0.4037610   0.0000000   0.0000000   0.8218740   0.0000000   2.7928460   2.7928460
 AtZNuc=   8.0000000   8.0000000   9.0000000   7.0000000   8.0000000   8.0000000  17.0000000   8.0000000   1.0000000   1.0000000
 Leave Link  101 at Sat Jul  8 04:09:37 2017, MaxMem= 34359738368 cpu:        27.6
 (Enter /share/sw/non-free/gaussian/g09/l103.exe)

 GradGradGradGradGradGradGradGradGradGradGradGradGradGradGradGradGradGrad
 Berny optimization.
 Initialization pass.
                           ----------------------------
                           !    Initial Parameters    !
                           ! (Angstroms and Degrees)  !
 --------------------------                            --------------------------
 ! Name  Definition              Value          Derivative Info.                !
 --------------------------------------------------------------------------------
 ! R1    R(1,2)                  1.3862         calculate D2E/DX2 analytically  !
 ! R2    R(1,5)                  1.3936         calculate D2E/DX2 analytically  !
 ! R3    R(1,6)                  1.085          calculate D2E/DX2 analytically  !
 ! R4    R(2,3)                  1.418          calculate D2E/DX2 analytically  !
 ! R5    R(2,10)                 1.4358         calculate D2E/DX2 analytically  !
 ! R6    R(3,4)                  1.367          calculate D2E/DX2 analytically  !
 ! R7    R(3,7)                  1.0873         calculate D2E/DX2 analytically  !
 ! R8    R(4,8)                  1.4392         calculate D2E/DX2 analytically  !
 ! R9    R(4,9)                  1.0874         calculate D2E/DX2 analytically  !
 ! R10   R(5,8)                  1.4397         calculate D2E/DX2 analytically  !
 ! R11   R(5,14)                 1.4425         calculate D2E/DX2 analytically  !
 ! R12   R(8,13)                 1.83           calculate D2E/DX2 analytically  !
 ! R13   R(8,17)                 1.7777         calculate D2E/DX2 analytically  !
 ! R14   R(10,11)                1.2403         calculate D2E/DX2 analytically  !
 ! R15   R(10,12)                1.2399         calculate D2E/DX2 analytically  !
 ! R16   R(13,19)                1.6878         calculate D2E/DX2 analytically  !
 ! R17   R(14,15)                1.2355         calculate D2E/DX2 analytically  !
 ! R18   R(14,16)                1.24           calculate D2E/DX2 analytically  !
 ! R19   R(18,19)                0.9851         calculate D2E/DX2 analytically  !
 ! R20   R(18,20)                0.9654         calculate D2E/DX2 analytically  !
 ! A1    A(2,1,5)              120.0518         calculate D2E/DX2 analytically  !
 ! A2    A(2,1,6)              120.6477         calculate D2E/DX2 analytically  !
 ! A3    A(5,1,6)              119.3004         calculate D2E/DX2 analytically  !
 ! A4    A(1,2,3)              120.6405         calculate D2E/DX2 analytically  !
 ! A5    A(1,2,10)             119.3608         calculate D2E/DX2 analytically  !
 ! A6    A(3,2,10)             119.9748         calculate D2E/DX2 analytically  !
 ! A7    A(2,3,4)              119.6509         calculate D2E/DX2 analytically  !
 ! A8    A(2,3,7)              119.6906         calculate D2E/DX2 analytically  !
 ! A9    A(4,3,7)              120.6432         calculate D2E/DX2 analytically  !
 ! A10   A(3,4,8)              121.824          calculate D2E/DX2 analytically  !
 ! A11   A(3,4,9)              120.7548         calculate D2E/DX2 analytically  !
 ! A12   A(8,4,9)              117.4052         calculate D2E/DX2 analytically  !
 ! A13   A(1,5,8)              120.8963         calculate D2E/DX2 analytically  !
 ! A14   A(1,5,14)             116.5893         calculate D2E/DX2 analytically  !
 ! A15   A(8,5,14)             122.3854         calculate D2E/DX2 analytically  !
 ! A16   A(4,8,5)              116.2984         calculate D2E/DX2 analytically  !
 ! A17   A(4,8,13)             101.2614         calculate D2E/DX2 analytically  !
 ! A18   A(4,8,17)             113.0276         calculate D2E/DX2 analytically  !
 ! A19   A(5,8,13)             103.8818         calculate D2E/DX2 analytically  !
 ! A20   A(5,8,17)             120.2827         calculate D2E/DX2 analytically  !
 ! A21   A(13,8,17)             97.2731         calculate D2E/DX2 analytically  !
 ! A22   A(2,10,11)            118.2746         calculate D2E/DX2 analytically  !
 ! A23   A(2,10,12)            119.0658         calculate D2E/DX2 analytically  !
 ! A24   A(11,10,12)           122.6595         calculate D2E/DX2 analytically  !
 ! A25   A(8,13,19)            120.7271         calculate D2E/DX2 analytically  !
 ! A26   A(5,14,15)            119.2641         calculate D2E/DX2 analytically  !
 ! A27   A(5,14,16)            118.2981         calculate D2E/DX2 analytically  !
 ! A28   A(15,14,16)           122.4367         calculate D2E/DX2 analytically  !
 ! A29   A(19,18,20)           102.5923         calculate D2E/DX2 analytically  !
 ! A30   L(13,19,18,14,-1)     178.7668         calculate D2E/DX2 analytically  !
 ! A31   L(13,19,18,14,-2)     178.3182         calculate D2E/DX2 analytically  !
 ! D1    D(5,1,2,3)             -1.8751         calculate D2E/DX2 analytically  !
 ! D2    D(5,1,2,10)           179.9003         calculate D2E/DX2 analytically  !
 ! D3    D(6,1,2,3)            177.9919         calculate D2E/DX2 analytically  !
 ! D4    D(6,1,2,10)            -0.2327         calculate D2E/DX2 analytically  !
 ! D5    D(2,1,5,8)             -3.8219         calculate D2E/DX2 analytically  !
 ! D6    D(2,1,5,14)          -179.7885         calculate D2E/DX2 analytically  !
 ! D7    D(6,1,5,8)            176.3094         calculate D2E/DX2 analytically  !
 ! D8    D(6,1,5,14)             0.3428         calculate D2E/DX2 analytically  !
 ! D9    D(1,2,3,4)              2.068          calculate D2E/DX2 analytically  !
 ! D10   D(1,2,3,7)           -176.5153         calculate D2E/DX2 analytically  !
 ! D11   D(10,2,3,4)          -179.7182         calculate D2E/DX2 analytically  !
 ! D12   D(10,2,3,7)             1.6985         calculate D2E/DX2 analytically  !
 ! D13   D(1,2,10,11)          178.9826         calculate D2E/DX2 analytically  !
 ! D14   D(1,2,10,12)           -1.1091         calculate D2E/DX2 analytically  !
 ! D15   D(3,2,10,11)            0.7459         calculate D2E/DX2 analytically  !
 ! D16   D(3,2,10,12)         -179.3458         calculate D2E/DX2 analytically  !
 ! D17   D(2,3,4,8)              3.4926         calculate D2E/DX2 analytically  !
 ! D18   D(2,3,4,9)           -177.9972         calculate D2E/DX2 analytically  !
 ! D19   D(7,3,4,8)           -177.9378         calculate D2E/DX2 analytically  !
 ! D20   D(7,3,4,9)              0.5724         calculate D2E/DX2 analytically  !
 ! D21   D(3,4,8,5)             -8.7475         calculate D2E/DX2 analytically  !
 ! D22   D(3,4,8,13)           103.0468         calculate D2E/DX2 analytically  !
 ! D23   D(3,4,8,17)          -153.9566         calculate D2E/DX2 analytically  !
 ! D24   D(9,4,8,5)            172.6946         calculate D2E/DX2 analytically  !
 ! D25   D(9,4,8,13)           -75.5112         calculate D2E/DX2 analytically  !
 ! D26   D(9,4,8,17)            27.4855         calculate D2E/DX2 analytically  !
 ! D27   D(1,5,8,4)              8.8634         calculate D2E/DX2 analytically  !
 ! D28   D(1,5,8,13)          -101.4111         calculate D2E/DX2 analytically  !
 ! D29   D(1,5,8,17)           151.4117         calculate D2E/DX2 analytically  !
 ! D30   D(14,5,8,4)          -175.4081         calculate D2E/DX2 analytically  !
 ! D31   D(14,5,8,13)           74.3174         calculate D2E/DX2 analytically  !
 ! D32   D(14,5,8,17)          -32.8599         calculate D2E/DX2 analytically  !
 ! D33   D(1,5,14,15)          166.5853         calculate D2E/DX2 analytically  !
 ! D34   D(1,5,14,16)          -13.0423         calculate D2E/DX2 analytically  !
 ! D35   D(8,5,14,15)           -9.316          calculate D2E/DX2 analytically  !
 ! D36   D(8,5,14,16)          171.0563         calculate D2E/DX2 analytically  !
 ! D37   D(4,8,13,19)          164.3307         calculate D2E/DX2 analytically  !
 ! D38   D(5,8,13,19)          -74.7023         calculate D2E/DX2 analytically  !
 ! D39   D(17,8,13,19)          49.0216         calculate D2E/DX2 analytically  !
 ! D40   D(8,13,18,20)          21.5119         calculate D2E/DX2 analytically  !
 --------------------------------------------------------------------------------
 Trust Radius=3.00D-01 FncErr=1.00D-07 GrdErr=1.00D-06
 Number of steps in this run=    101 maximum allowed number of steps=    120.
 Search for a saddle point of order  1.
 GradGradGradGradGradGradGradGradGradGradGradGradGradGradGradGradGradGrad

 Leave Link  103 at Sat Jul  8 04:09:38 2017, MaxMem= 34359738368 cpu:         0.5
 (Enter /share/sw/non-free/gaussian/g09/l202.exe)
                          Input orientation:                          
 ---------------------------------------------------------------------
 Center     Atomic      Atomic             Coordinates (Angstroms)
 Number     Number       Type             X           Y           Z
 ---------------------------------------------------------------------
      1          6           0       -1.127544    0.838707   -0.095783
      2          6           0       -2.051181   -0.185564    0.043027
      3          6           0       -1.648037   -1.541095   -0.060152
      4          6           0       -0.328897   -1.841271   -0.256512
      5          6           0        0.218574    0.541610   -0.300287
      6          1           0       -1.441159    1.876343   -0.049139
      7          1           0       -2.393806   -2.330403   -0.005495
      8          6           0        0.684955   -0.820388   -0.289403
      9          1           0       -0.004366   -2.872796   -0.370532
     10          7           0       -3.434000    0.137424    0.255332
     11          8           0       -4.245988   -0.794491    0.357666
     12          8           0       -3.769617    1.328600    0.330769
     13          9           0        1.439700   -1.012798    1.366537
     14          7           0        1.115070    1.664251   -0.430043
     15          8           0        2.334036    1.474739   -0.361962
     16          8           0        0.625607    2.790792   -0.599888
     17         17           0        2.111178   -1.287189   -1.242393
     18          8           0        3.798919    0.109776    1.928970
     19          1           0        2.939608   -0.322301    1.716167
     20          1           0        3.854034    0.807491    1.264036
 ---------------------------------------------------------------------
                    Distance matrix (angstroms):
                    1          2          3          4          5
     1  C    0.000000
     2  C    1.386183   0.000000
     3  C    2.436317   1.417969   0.000000
     4  C    2.801063   2.407769   1.367038   0.000000
     5  C    1.393600   2.407994   2.807056   2.445355   0.000000
     6  H    1.084997   2.152227   3.423712   3.885973   2.144598
     7  H    3.413917   2.172575   1.087275   2.136846   3.893570
     8  C    2.464800   2.828419   2.452514   1.439159   1.439676
     9  H    3.887450   3.403189   2.138087   1.087366   3.422398
    10  N    2.436148   1.435821   2.471158   3.717376   3.716635
    11  O    3.549316   2.299341   2.735204   4.100801   4.706419
    12  O    2.720752   2.308357   3.590135   4.715033   4.113788
    13  F    3.486717   3.823904   3.442188   2.539408   2.585660
    14  N    2.413000   3.697399   4.248038   3.795239   1.442520
    15  O    3.529578   4.706458   5.004323   4.254204   2.312945
    16  O    2.671759   4.054285   4.921993   4.741834   2.305267
    17  Cl   4.040231   4.493452   3.948906   2.689411   2.795357
    18  O    5.375965   6.153672   6.029205   5.061796   4.239686
    19  H    4.601394   5.265555   5.068260   4.108754   3.495205
    20  H    5.163933   6.111349   6.127162   5.179278   3.966657
                    6          7          8          9         10
     6  H    0.000000
     7  H    4.313485   0.000000
     8  C    3.442448   3.440860   0.000000
     9  H    4.972121   2.477270   2.166593   0.000000
    10  N    2.662322   2.690763   4.263793   4.606031   0.000000
    11  O    3.894343   2.433411   4.973285   4.779224   1.240267
    12  O    2.421997   3.923548   4.984574   5.685127   1.239851
    13  F    4.318637   4.279524   1.829972   2.926146   5.129399
    14  N    2.593140   5.333827   2.525512   4.673486   4.847162
    15  O    3.809362   6.079364   2.827073   4.936523   5.953125
    16  O    2.326169   5.974680   3.624989   5.703131   4.924649
    17  Cl   4.904170   4.786762   1.777697   2.783849   5.917914
    18  O    5.872997   6.931556   3.934864   5.352422   7.424079
    19  H    5.209747   5.953310   3.058408   4.418860   6.555018
    20  H    5.559311   7.105884   3.886673   5.577058   7.387957
                   11         12         13         14         15
    11  O    0.000000
    12  O    2.176044   0.000000
    13  F    5.778627   5.804476   0.000000
    14  N    5.950365   4.954964   3.240320   0.000000
    15  O    6.997427   6.144576   3.158383   1.235487   0.000000
    16  O    6.124018   4.724629   4.358540   1.239966   2.169639
    17  Cl   6.573926   6.625778   2.707894   3.219183   2.907417
    18  O    8.246649   7.830869   2.672530   3.896714   3.042594
    19  H    7.328116   7.046879   1.687824   3.446962   2.813306
    20  H    8.306516   7.698220   3.025387   3.332546   2.323679
                   16         17         18         19         20
    16  O    0.000000
    17  Cl   4.387444   0.000000
    18  O    4.863423   3.854546   0.000000
    19  H    4.517749   3.220308   0.985084   0.000000
    20  H    4.222610   3.702353   0.965392   1.522178   0.000000
 Stoichiometry    C6H5ClFN2O5(1-)
 Framework group  C1[X(C6H5ClFN2O5)]
 Deg. of freedom    54
 Full point group                 C1      NOp   1
 Largest Abelian subgroup         C1      NOp   1
 Largest concise Abelian subgroup C1      NOp   1
                         Standard orientation:                         
 ---------------------------------------------------------------------
 Center     Atomic      Atomic             Coordinates (Angstroms)
 Number     Number       Type             X           Y           Z
 ---------------------------------------------------------------------
      1          6           0       -1.127544    0.838707   -0.095783
      2          6           0       -2.051181   -0.185564    0.043027
      3          6           0       -1.648037   -1.541095   -0.060152
      4          6           0       -0.328897   -1.841271   -0.256512
      5          6           0        0.218574    0.541610   -0.300287
      6          1           0       -1.441159    1.876343   -0.049139
      7          1           0       -2.393806   -2.330403   -0.005495
      8          6           0        0.684955   -0.820388   -0.289403
      9          1           0       -0.004366   -2.872796   -0.370532
     10          7           0       -3.434000    0.137424    0.255332
     11          8           0       -4.245988   -0.794491    0.357666
     12          8           0       -3.769617    1.328600    0.330769
     13          9           0        1.439700   -1.012798    1.366537
     14          7           0        1.115070    1.664251   -0.430043
     15          8           0        2.334036    1.474739   -0.361962
     16          8           0        0.625607    2.790792   -0.599888
     17         17           0        2.111178   -1.287189   -1.242393
     18          8           0        3.798919    0.109776    1.928970
     19          1           0        2.939608   -0.322301    1.716167
     20          1           0        3.854034    0.807491    1.264036
 ---------------------------------------------------------------------
 Rotational constants (GHZ):      0.8511203      0.3309634      0.2843618
 Leave Link  202 at Sat Jul  8 04:09:38 2017, MaxMem= 34359738368 cpu:         0.3
 (Enter /share/sw/non-free/gaussian/g09/l301.exe)
 Standard basis: 6-31+G(d) (6D, 7F)
 Ernie: Thresh=  0.10000D-02 Tol=  0.10000D-05 Strict=F.
 There are   299 symmetry adapted cartesian basis functions of A   symmetry.
 There are   299 symmetry adapted basis functions of A   symmetry.
   299 basis functions,   524 primitive gaussians,   299 cartesian basis functions
    61 alpha electrons       61 beta electrons
       nuclear repulsion energy      1146.4485644457 Hartrees.
 IExCor=  402 DFT=T Ex+Corr=B3LYP ExCW=0 ScaHFX=  0.200000
 ScaDFX=  0.800000  0.720000  1.000000  0.810000 ScalE2=  1.000000  1.000000
 IRadAn=      0 IRanWt=     -1 IRanGd=            0 ICorTp=0 IEmpDi=141
 NAtoms=   20 NActive=   20 NUniq=   20 SFac= 1.00D+00 NAtFMM=   60 NAOKFM=F Big=F
 Integral buffers will be    131072 words long.
 Raffenetti 2 integral format.
 Two-electron integral symmetry is turned on.
 R6Disp:  Grimme-D3(BJ) Dispersion energy=       -0.0413193280 Hartrees.
 Nuclear repulsion after empirical dispersion term =     1146.4072451177 Hartrees.
 Force inversion solution in PCM.
 ------------------------------------------------------------------------------
 Polarizable Continuum Model (PCM)
 =================================
 Model                : PCM (using non-symmetric T matrix).
 Atomic radii         : UFF (Universal Force Field).
 Polarization charges : Total charges.
 Charge compensation  : None.
 Solution method      : Matrix inversion.
 Cavity type          : Scaled VdW (van der Waals Surface) (Alpha=1.100).
 Cavity algorithm     : GePol (No added spheres)
                        Default sphere list used, NSphG=   20.
                        Lebedev-Laikov grids with approx.  5.0 points / Ang**2.
                        Smoothing algorithm: Karplus/York (Gamma=1.0000).
                        Polarization charges: spherical gaussians, with
                                              point-specific exponents (IZeta= 3).
                        Self-potential: point-specific (ISelfS= 7).
                        Self-field    : sphere-specific E.n sum rule (ISelfD= 2).
 1st derivatives      : Analytical E(r).r(x)/FMM algorithm (CHGder, D1EAlg=3).
                        Cavity 1st derivative terms included.
 2nd derivatives      : Analytical E(r).r(xy)/FMM algorithm (CHGder, D2EAlg=3).
                        Cavity 2nd derivative terms included.
 Solvent              : n,n-DiMethylFormamide, Eps=  37.219000 Eps(inf)=   2.046330
 ------------------------------------------------------------------------------
 Spheres list:
 ISph  on   Nord     Re0    Alpha      Xe            Ye            Ze
    1   C      1    1.9255  1.100     -1.127544      0.838707     -0.095783
    2   C      2    1.9255  1.100     -2.051181     -0.185564      0.043027
    3   C      3    1.9255  1.100     -1.648037     -1.541095     -0.060152
    4   C      4    1.9255  1.100     -0.328897     -1.841271     -0.256512
    5   C      5    1.9255  1.100      0.218574      0.541610     -0.300287
    6   H      6    1.4430  1.100     -1.441159      1.876343     -0.049139
    7   H      7    1.4430  1.100     -2.393806     -2.330403     -0.005495
    8   C      8    1.9255  1.100      0.684955     -0.820388     -0.289403
    9   H      9    1.4430  1.100     -0.004366     -2.872796     -0.370532
   10   N     10    1.8300  1.100     -3.434000      0.137424      0.255332
   11   O     11    1.7500  1.100     -4.245988     -0.794491      0.357666
   12   O     12    1.7500  1.100     -3.769617      1.328600      0.330769
   13   F     13    1.6820  1.100      1.439700     -1.012798      1.366537
   14   N     14    1.8300  1.100      1.115070      1.664251     -0.430043
   15   O     15    1.7500  1.100      2.334036      1.474739     -0.361962
   16   O     16    1.7500  1.100      0.625607      2.790792     -0.599888
   17  Cl     17    1.9735  1.100      2.111178     -1.287189     -1.242393
   18   O     18    1.7500  1.100      3.798919      0.109776      1.928970
   19   H     19    1.4430  1.100      2.939608     -0.322301      1.716167
   20   H     20    1.4430  1.100      3.854034      0.807491      1.264036
 ------------------------------------------------------------------------------
 GePol: Number of generator spheres                  =      20
 GePol: Total number of spheres                      =      20
 GePol: Number of exposed spheres                    =      20 (100.00%)
 GePol: Number of points                             =    1926
 GePol: Average weight of points                     =       0.13
 GePol: Minimum weight of points                     =   0.32D-10
 GePol: Maximum weight of points                     =    0.21616
 GePol: Number of points with low weight             =      76
 GePol: Fraction of low-weight points (<1% of avg)   =       3.95%
 GePol: Cavity surface area                          =    255.762 Ang**2
 GePol: Cavity volume                                =    266.374 Ang**3
 Leave Link  301 at Sat Jul  8 04:09:39 2017, MaxMem= 34359738368 cpu:         5.4
 (Enter /share/sw/non-free/gaussian/g09/l302.exe)
 NPDir=0 NMtPBC=     1 NCelOv=     1 NCel=       1 NClECP=     1 NCelD=      1
         NCelK=      1 NCelE2=     1 NClLst=     1 CellRange=     0.0.
 One-electron integrals computed using PRISM.
 NBasis=   299 RedAO= T EigKep=  2.07D-06  NBF=   299
 NBsUse=   299 1.00D-06 EigRej= -1.00D+00 NBFU=   299
 Precomputing XC quadrature grid using
 IXCGrd= 4 IRadAn=           0 IRanWt=          -1 IRanGd=           0 AccXCQ= 0.00D+00.
 Generated NRdTot=       0 NPtTot=           0 NUsed=           0 NTot=          32
 NSgBfM=   296   296   296   296   296 MxSgAt=    20 MxSgA2=    20.
 Leave Link  302 at Sat Jul  8 04:09:41 2017, MaxMem= 34359738368 cpu:        22.7
 (Enter /share/sw/non-free/gaussian/g09/l303.exe)
 DipDrv:  MaxL=1.
 Leave Link  303 at Sat Jul  8 04:09:41 2017, MaxMem= 34359738368 cpu:         4.5
 (Enter /share/sw/non-free/gaussian/g09/l401.exe)
 ExpMin= 4.38D-02 ExpMax= 2.52D+04 ExpMxC= 3.78D+03 IAcc=2 IRadAn=         4 AccDes= 0.00D+00
 Harris functional with IExCor=  402 and IRadAn=       4 diagonalized for initial guess.
 HarFok:  IExCor=  402 AccDes= 0.00D+00 IRadAn=         4 IDoV= 1 UseB2=F ITyADJ=14
 ICtDFT=  3500011 ScaDFX=  1.000000  1.000000  1.000000  1.000000
 FoFCou: FMM=F IPFlag=           0 FMFlag=      100000 FMFlg1=           0
         NFxFlg=           0 DoJE=T BraDBF=F KetDBF=T FulRan=T
         wScrn=  0.000000 ICntrl=     500 IOpCl=  0 I1Cent=   200000004 NGrid=           0
         NMat0=    1 NMatS0=      1 NMatT0=    0 NMatD0=    1 NMtDS0=    0 NMtDT0=    0
 Petite list used in FoFCou.
 Harris En= -1277.35748408686    
 JPrj=0 DoOrth=F DoCkMO=F.
 Leave Link  401 at Sat Jul  8 04:09:44 2017, MaxMem= 34359738368 cpu:        58.2
 (Enter /share/sw/non-free/gaussian/g09/l502.exe)
 Closed shell SCF:
 Using DIIS extrapolation, IDIIS=  1040.
 Integral symmetry usage will be decided dynamically.
 Keep R1 ints in memory in canonical form, NReq=1019582065.
 IVT=      298540 IEndB=      298540 NGot= 34359738368 MDV= 33353656154
 LenX= 33353656154 LenY= 33353566312
 Requested convergence on RMS density matrix=1.00D-08 within 128 cycles.
 Requested convergence on MAX density matrix=1.00D-06.
 Requested convergence on             energy=1.00D-06.
 No special actions if energy rises.
 FoFCou: FMM=F IPFlag=           0 FMFlag=           0 FMFlg1=           0
         NFxFlg=           0 DoJE=F BraDBF=F KetDBF=F FulRan=T
         wScrn=  0.000000 ICntrl=     600 IOpCl=  0 I1Cent=           0 NGrid=           0
         NMat0=    1 NMatS0=  44850 NMatT0=    0 NMatD0=    1 NMtDS0=    0 NMtDT0=    0
 Symmetry not used in FoFCou.

 Cycle   1  Pass 1  IDiag  1:
 Inv3:  Mode=1 IEnd=    11128428.
 Iteration    1 A*A^-1 deviation from unit magnitude is 6.22D-15 for    624.
 Iteration    1 A*A^-1 deviation from orthogonality  is 3.43D-15 for   1707   1511.
 Iteration    1 A^-1*A deviation from unit magnitude is 5.11D-15 for   1925.
 Iteration    1 A^-1*A deviation from orthogonality  is 1.94D-13 for   1072   1013.
 E= -1276.82884205863    
 DIIS: error= 2.46D-02 at cycle   1 NSaved=   1.
 NSaved= 1 IEnMin= 1 EnMin= -1276.82884205863     IErMin= 1 ErrMin= 2.46D-02
 ErrMax= 2.46D-02  0.00D+00 EMaxC= 1.00D-01 BMatC= 6.67D-01 BMatP= 6.67D-01
 IDIUse=3 WtCom= 7.54D-01 WtEn= 2.46D-01
 Coeff-Com:  0.100D+01
 Coeff-En:   0.100D+01
 Coeff:      0.100D+01
 Gap=     0.190 Goal=   None    Shift=    0.000
 GapD=    0.190 DampG=1.000 DampE=0.500 DampFc=0.5000 IDamp=-1.
 Damping current iteration by 5.00D-01
 RMSDP=6.42D-02 MaxDP=6.01D+00              OVMax= 3.35D-01

 Cycle   2  Pass 1  IDiag  1:
 E= -1276.88775275042     Delta-E=       -0.058910691785 Rises=F Damp=T
 DIIS: error= 1.22D-02 at cycle   2 NSaved=   2.
 NSaved= 2 IEnMin= 2 EnMin= -1276.88775275042     IErMin= 2 ErrMin= 1.22D-02
 ErrMax= 1.22D-02  0.00D+00 EMaxC= 1.00D-01 BMatC= 1.43D-01 BMatP= 6.67D-01
 IDIUse=3 WtCom= 8.78D-01 WtEn= 1.22D-01
 Coeff-Com:  0.293D+00 0.707D+00
 Coeff-En:   0.452D+00 0.548D+00
 Coeff:      0.312D+00 0.688D+00
 Gap=     0.181 Goal=   None    Shift=    0.000
 RMSDP=2.62D-02 MaxDP=2.79D+00 DE=-5.89D-02 OVMax= 2.46D-01

 Cycle   3  Pass 1  IDiag  1:
 E= -1277.30734376955     Delta-E=       -0.419591019126 Rises=F Damp=F
 DIIS: error= 9.24D-03 at cycle   3 NSaved=   3.
 NSaved= 3 IEnMin= 3 EnMin= -1277.30734376955     IErMin= 3 ErrMin= 9.24D-03
 ErrMax= 9.24D-03  0.00D+00 EMaxC= 1.00D-01 BMatC= 3.41D-02 BMatP= 1.43D-01
 IDIUse=3 WtCom= 9.08D-01 WtEn= 9.24D-02
 Coeff-Com:  0.136D+00 0.356D+00 0.507D+00
 Coeff-En:   0.000D+00 0.000D+00 0.100D+01
 Coeff:      0.124D+00 0.323D+00 0.553D+00
 Gap=     0.128 Goal=   None    Shift=    0.000
 RMSDP=5.93D-03 MaxDP=4.56D-01 DE=-4.20D-01 OVMax= 1.15D-01

 Cycle   4  Pass 1  IDiag  1:
 E= -1277.32528214703     Delta-E=       -0.017938377487 Rises=F Damp=F
 DIIS: error= 6.66D-03 at cycle   4 NSaved=   4.
 NSaved= 4 IEnMin= 4 EnMin= -1277.32528214703     IErMin= 4 ErrMin= 6.66D-03
 ErrMax= 6.66D-03  0.00D+00 EMaxC= 1.00D-01 BMatC= 1.60D-02 BMatP= 3.41D-02
 IDIUse=3 WtCom= 9.33D-01 WtEn= 6.66D-02
 Coeff-Com:  0.270D-01 0.761D-01 0.391D+00 0.506D+00
 Coeff-En:   0.000D+00 0.000D+00 0.316D+00 0.684D+00
 Coeff:      0.252D-01 0.710D-01 0.386D+00 0.518D+00
 Gap=     0.131 Goal=   None    Shift=    0.000
 RMSDP=2.03D-03 MaxDP=1.31D-01 DE=-1.79D-02 OVMax= 4.19D-02

 Cycle   5  Pass 1  IDiag  1:
 E= -1277.33613802964     Delta-E=       -0.010855882608 Rises=F Damp=F
 DIIS: error= 1.08D-03 at cycle   5 NSaved=   5.
 NSaved= 5 IEnMin= 5 EnMin= -1277.33613802964     IErMin= 5 ErrMin= 1.08D-03
 ErrMax= 1.08D-03  0.00D+00 EMaxC= 1.00D-01 BMatC= 1.07D-03 BMatP= 1.60D-02
 IDIUse=3 WtCom= 9.89D-01 WtEn= 1.08D-02
 Coeff-Com:  0.218D-02 0.287D-02 0.166D+00 0.297D+00 0.532D+00
 Coeff-En:   0.000D+00 0.000D+00 0.000D+00 0.000D+00 0.100D+01
 Coeff:      0.215D-02 0.284D-02 0.164D+00 0.294D+00 0.537D+00
 Gap=     0.130 Goal=   None    Shift=    0.000
 RMSDP=7.87D-04 MaxDP=4.04D-02 DE=-1.09D-02 OVMax= 7.16D-03

 Cycle   6  Pass 1  IDiag  1:
 E= -1277.33697507627     Delta-E=       -0.000837046627 Rises=F Damp=F
 DIIS: error= 3.69D-04 at cycle   6 NSaved=   6.
 NSaved= 6 IEnMin= 6 EnMin= -1277.33697507627     IErMin= 6 ErrMin= 3.69D-04
 ErrMax= 3.69D-04  0.00D+00 EMaxC= 1.00D-01 BMatC= 9.08D-05 BMatP= 1.07D-03
 IDIUse=3 WtCom= 9.96D-01 WtEn= 3.69D-03
 Coeff-Com:  0.302D-03-0.127D-02 0.764D-01 0.139D+00 0.314D+00 0.472D+00
 Coeff-En:   0.000D+00 0.000D+00 0.000D+00 0.000D+00 0.000D+00 0.100D+01
 Coeff:      0.301D-03-0.126D-02 0.762D-01 0.139D+00 0.312D+00 0.474D+00
 Gap=     0.130 Goal=   None    Shift=    0.000
 RMSDP=2.72D-04 MaxDP=1.34D-02 DE=-8.37D-04 OVMax= 3.99D-03

 Cycle   7  Pass 1  IDiag  1:
 E= -1277.33703903944     Delta-E=       -0.000063963175 Rises=F Damp=F
 DIIS: error= 2.28D-04 at cycle   7 NSaved=   7.
 NSaved= 7 IEnMin= 7 EnMin= -1277.33703903944     IErMin= 7 ErrMin= 2.28D-04
 ErrMax= 2.28D-04  0.00D+00 EMaxC= 1.00D-01 BMatC= 1.94D-05 BMatP= 9.08D-05
 IDIUse=3 WtCom= 9.98D-01 WtEn= 2.28D-03
 Coeff-Com: -0.899D-04-0.169D-02 0.246D-01 0.441D-01 0.129D+00 0.329D+00
 Coeff-Com:  0.476D+00
 Coeff-En:   0.000D+00 0.000D+00 0.000D+00 0.000D+00 0.000D+00 0.162D+00
 Coeff-En:   0.838D+00
 Coeff:     -0.897D-04-0.169D-02 0.245D-01 0.440D-01 0.128D+00 0.329D+00
 Coeff:      0.476D+00
 Gap=     0.130 Goal=   None    Shift=    0.000
 RMSDP=9.43D-05 MaxDP=5.40D-03 DE=-6.40D-05 OVMax= 2.13D-03

 Cycle   8  Pass 1  IDiag  1:
 E= -1277.33705198964     Delta-E=       -0.000012950195 Rises=F Damp=F
 DIIS: error= 7.85D-05 at cycle   8 NSaved=   8.
 NSaved= 8 IEnMin= 8 EnMin= -1277.33705198964     IErMin= 8 ErrMin= 7.85D-05
 ErrMax= 7.85D-05  0.00D+00 EMaxC= 1.00D-01 BMatC= 2.97D-06 BMatP= 1.94D-05
 IDIUse=1 WtCom= 1.00D+00 WtEn= 0.00D+00
 Coeff-Com: -0.103D-03-0.123D-02 0.734D-02 0.123D-01 0.496D-01 0.163D+00
 Coeff-Com:  0.328D+00 0.441D+00
 Coeff:     -0.103D-03-0.123D-02 0.734D-02 0.123D-01 0.496D-01 0.163D+00
 Coeff:      0.328D+00 0.441D+00
 Gap=     0.130 Goal=   None    Shift=    0.000
 RMSDP=2.69D-05 MaxDP=1.21D-03 DE=-1.30D-05 OVMax= 7.21D-04

 Cycle   9  Pass 1  IDiag  1:
 E= -1277.33705419393     Delta-E=       -0.000002204289 Rises=F Damp=F
 DIIS: error= 2.06D-05 at cycle   9 NSaved=   9.
 NSaved= 9 IEnMin= 9 EnMin= -1277.33705419393     IErMin= 9 ErrMin= 2.06D-05
 ErrMax= 2.06D-05  0.00D+00 EMaxC= 1.00D-01 BMatC= 2.38D-07 BMatP= 2.97D-06
 IDIUse=1 WtCom= 1.00D+00 WtEn= 0.00D+00
 Coeff-Com: -0.919D-05-0.371D-03 0.187D-03-0.822D-03 0.554D-02 0.341D-01
 Coeff-Com:  0.107D+00 0.259D+00 0.595D+00
 Coeff:     -0.919D-05-0.371D-03 0.187D-03-0.822D-03 0.554D-02 0.341D-01
 Coeff:      0.107D+00 0.259D+00 0.595D+00
 Gap=     0.130 Goal=   None    Shift=    0.000
 RMSDP=1.32D-05 MaxDP=6.63D-04 DE=-2.20D-06 OVMax= 2.41D-04

 Cycle  10  Pass 1  IDiag  1:
 E= -1277.33705438862     Delta-E=       -0.000000194694 Rises=F Damp=F
 DIIS: error= 5.80D-06 at cycle  10 NSaved=  10.
 NSaved=10 IEnMin=10 EnMin= -1277.33705438862     IErMin=10 ErrMin= 5.80D-06
 ErrMax= 5.80D-06  0.00D+00 EMaxC= 1.00D-01 BMatC= 2.66D-08 BMatP= 2.38D-07
 IDIUse=1 WtCom= 1.00D+00 WtEn= 0.00D+00
 Coeff-Com:  0.160D-04-0.785D-04-0.449D-03-0.149D-02-0.166D-02 0.293D-02
 Coeff-Com:  0.255D-01 0.953D-01 0.333D+00 0.547D+00
 Coeff:      0.160D-04-0.785D-04-0.449D-03-0.149D-02-0.166D-02 0.293D-02
 Coeff:      0.255D-01 0.953D-01 0.333D+00 0.547D+00
 Gap=     0.130 Goal=   None    Shift=    0.000
 RMSDP=5.82D-06 MaxDP=5.70D-04 DE=-1.95D-07 OVMax= 5.94D-05

 Cycle  11  Pass 1  IDiag  1:
 E= -1277.33705441131     Delta-E=       -0.000000022695 Rises=F Damp=F
 DIIS: error= 1.81D-06 at cycle  11 NSaved=  11.
 NSaved=11 IEnMin=11 EnMin= -1277.33705441131     IErMin=11 ErrMin= 1.81D-06
 ErrMax= 1.81D-06  0.00D+00 EMaxC= 1.00D-01 BMatC= 3.61D-09 BMatP= 2.66D-08
 IDIUse=1 WtCom= 1.00D+00 WtEn= 0.00D+00
 Coeff-Com:  0.101D-04-0.146D-04-0.322D-03-0.874D-03-0.175D-02-0.184D-02
 Coeff-Com:  0.341D-02 0.274D-01 0.134D+00 0.328D+00 0.512D+00
 Coeff:      0.101D-04-0.146D-04-0.322D-03-0.874D-03-0.175D-02-0.184D-02
 Coeff:      0.341D-02 0.274D-01 0.134D+00 0.328D+00 0.512D+00
 Gap=     0.130 Goal=   None    Shift=    0.000
 RMSDP=1.30D-06 MaxDP=1.19D-04 DE=-2.27D-08 OVMax= 2.16D-05

 Cycle  12  Pass 1  IDiag  1:
 E= -1277.33705441447     Delta-E=       -0.000000003156 Rises=F Damp=F
 DIIS: error= 4.86D-07 at cycle  12 NSaved=  12.
 NSaved=12 IEnMin=12 EnMin= -1277.33705441447     IErMin=12 ErrMin= 4.86D-07
 ErrMax= 4.86D-07  0.00D+00 EMaxC= 1.00D-01 BMatC= 2.88D-10 BMatP= 3.61D-09
 IDIUse=1 WtCom= 1.00D+00 WtEn= 0.00D+00
 Coeff-Com:  0.214D-05 0.838D-05-0.112D-03-0.253D-03-0.778D-03-0.150D-02
 Coeff-Com: -0.258D-02-0.207D-02 0.159D-01 0.858D-01 0.256D+00 0.649D+00
 Coeff:      0.214D-05 0.838D-05-0.112D-03-0.253D-03-0.778D-03-0.150D-02
 Coeff:     -0.258D-02-0.207D-02 0.159D-01 0.858D-01 0.256D+00 0.649D+00
 Gap=     0.130 Goal=   None    Shift=    0.000
 RMSDP=4.31D-07 MaxDP=3.69D-05 DE=-3.16D-09 OVMax= 8.54D-06

 Cycle  13  Pass 1  IDiag  1:
 E= -1277.33705441475     Delta-E=       -0.000000000276 Rises=F Damp=F
 DIIS: error= 1.88D-07 at cycle  13 NSaved=  13.
 NSaved=13 IEnMin=13 EnMin= -1277.33705441475     IErMin=13 ErrMin= 1.88D-07
 ErrMax= 1.88D-07  0.00D+00 EMaxC= 1.00D-01 BMatC= 4.89D-11 BMatP= 2.88D-10
 IDIUse=1 WtCom= 1.00D+00 WtEn= 0.00D+00
 Coeff-Com: -0.405D-06 0.505D-05-0.176D-04-0.271D-04-0.193D-03-0.478D-03
 Coeff-Com: -0.155D-02-0.399D-02-0.552D-02 0.135D-01 0.845D-01 0.363D+00
 Coeff-Com:  0.551D+00
 Coeff:     -0.405D-06 0.505D-05-0.176D-04-0.271D-04-0.193D-03-0.478D-03
 Coeff:     -0.155D-02-0.399D-02-0.552D-02 0.135D-01 0.845D-01 0.363D+00
 Coeff:      0.551D+00
 Gap=     0.130 Goal=   None    Shift=    0.000
 RMSDP=2.31D-07 MaxDP=2.16D-05 DE=-2.76D-10 OVMax= 2.57D-06

 Cycle  14  Pass 1  IDiag  1:
 E= -1277.33705441474     Delta-E=        0.000000000011 Rises=F Damp=F
 DIIS: error= 9.95D-08 at cycle  14 NSaved=  14.
 NSaved=14 IEnMin=13 EnMin= -1277.33705441475     IErMin=14 ErrMin= 9.95D-08
 ErrMax= 9.95D-08  0.00D+00 EMaxC= 1.00D-01 BMatC= 6.51D-12 BMatP= 4.89D-11
 IDIUse=1 WtCom= 1.00D+00 WtEn= 0.00D+00
 Coeff-Com: -0.536D-06 0.241D-05-0.147D-05 0.563D-05-0.415D-04-0.147D-03
 Coeff-Com: -0.660D-03-0.216D-02-0.509D-02-0.115D-02 0.212D-01 0.139D+00
 Coeff-Com:  0.322D+00 0.527D+00
 Coeff:     -0.536D-06 0.241D-05-0.147D-05 0.563D-05-0.415D-04-0.147D-03
 Coeff:     -0.660D-03-0.216D-02-0.509D-02-0.115D-02 0.212D-01 0.139D+00
 Coeff:      0.322D+00 0.527D+00
 Gap=     0.130 Goal=   None    Shift=    0.000
 RMSDP=7.78D-08 MaxDP=8.37D-06 DE= 1.14D-11 OVMax= 1.16D-06

 Cycle  15  Pass 1  IDiag  1:
 E= -1277.33705441477     Delta-E=       -0.000000000039 Rises=F Damp=F
 DIIS: error= 6.64D-08 at cycle  15 NSaved=  15.
 NSaved=15 IEnMin=15 EnMin= -1277.33705441477     IErMin=15 ErrMin= 6.64D-08
 ErrMax= 6.64D-08  0.00D+00 EMaxC= 1.00D-01 BMatC= 3.37D-12 BMatP= 6.51D-12
 IDIUse=1 WtCom= 1.00D+00 WtEn= 0.00D+00
 Coeff-Com: -0.332D-06 0.961D-06 0.184D-05 0.839D-05 0.426D-05-0.249D-04
 Coeff-Com: -0.198D-03-0.856D-03-0.283D-02-0.341D-02-0.785D-03 0.329D-01
 Coeff-Com:  0.143D+00 0.427D+00 0.405D+00
 Coeff:     -0.332D-06 0.961D-06 0.184D-05 0.839D-05 0.426D-05-0.249D-04
 Coeff:     -0.198D-03-0.856D-03-0.283D-02-0.341D-02-0.785D-03 0.329D-01
 Coeff:      0.143D+00 0.427D+00 0.405D+00
 Gap=     0.130 Goal=   None    Shift=    0.000
 RMSDP=3.95D-08 MaxDP=2.13D-06 DE=-3.87D-11 OVMax= 5.17D-07

 Cycle  16  Pass 1  IDiag  1:
 E= -1277.33705441478     Delta-E=       -0.000000000010 Rises=F Damp=F
 DIIS: error= 6.55D-09 at cycle  16 NSaved=  16.
 NSaved=16 IEnMin=16 EnMin= -1277.33705441478     IErMin=16 ErrMin= 6.55D-09
 ErrMax= 6.55D-09  0.00D+00 EMaxC= 1.00D-01 BMatC= 5.36D-14 BMatP= 3.37D-12
 IDIUse=1 WtCom= 1.00D+00 WtEn= 0.00D+00
 Coeff-Com: -0.672D-07 0.779D-07 0.134D-05 0.324D-05 0.874D-05 0.828D-05
 Coeff-Com:  0.472D-05-0.854D-04-0.615D-03-0.118D-02-0.250D-02-0.233D-02
 Coeff-Com:  0.233D-01 0.104D+00 0.145D+00 0.735D+00
 Coeff:     -0.672D-07 0.779D-07 0.134D-05 0.324D-05 0.874D-05 0.828D-05
 Coeff:      0.472D-05-0.854D-04-0.615D-03-0.118D-02-0.250D-02-0.233D-02
 Coeff:      0.233D-01 0.104D+00 0.145D+00 0.735D+00
 Gap=     0.130 Goal=   None    Shift=    0.000
 RMSDP=2.07D-08 MaxDP=1.90D-06 DE=-1.00D-11 OVMax= 1.32D-07

 Cycle  17  Pass 1  IDiag  1:
 E= -1277.33705441480     Delta-E=       -0.000000000014 Rises=F Damp=F
 DIIS: error= 3.85D-09 at cycle  17 NSaved=  17.
 NSaved=17 IEnMin=17 EnMin= -1277.33705441480     IErMin=17 ErrMin= 3.85D-09
 ErrMax= 3.85D-09  0.00D+00 EMaxC= 1.00D-01 BMatC= 2.12D-14 BMatP= 5.36D-14
 IDIUse=1 WtCom= 1.00D+00 WtEn= 0.00D+00
 Coeff-Com:  0.193D-07-0.988D-07 0.439D-06 0.342D-06 0.426D-05 0.720D-05
 Coeff-Com:  0.345D-04 0.893D-04 0.681D-04-0.154D-03-0.142D-02-0.690D-02
 Coeff-Com: -0.813D-02-0.328D-02 0.264D-01 0.455D+00 0.539D+00
 Coeff:      0.193D-07-0.988D-07 0.439D-06 0.342D-06 0.426D-05 0.720D-05
 Coeff:      0.345D-04 0.893D-04 0.681D-04-0.154D-03-0.142D-02-0.690D-02
 Coeff:     -0.813D-02-0.328D-02 0.264D-01 0.455D+00 0.539D+00
 Gap=     0.130 Goal=   None    Shift=    0.000
 RMSDP=1.00D-08 MaxDP=4.97D-07 DE=-1.36D-11 OVMax= 4.62D-08

 Cycle  18  Pass 1  IDiag  1:
 E= -1277.33705441473     Delta-E=        0.000000000069 Rises=F Damp=F
 DIIS: error= 8.96D-10 at cycle  18 NSaved=  18.
 NSaved=18 IEnMin=17 EnMin= -1277.33705441480     IErMin=18 ErrMin= 8.96D-10
 ErrMax= 8.96D-10  0.00D+00 EMaxC= 1.00D-01 BMatC= 6.54D-16 BMatP= 2.12D-14
 IDIUse=1 WtCom= 1.00D+00 WtEn= 0.00D+00
 Large coefficients: NSaved= 18 BigCof=    0.00 CofMax=   10.00 Det=-7.59D-15
 Inversion failed.  Reducing to 17 matrices.
 Large coefficients: NSaved= 17 BigCof=    0.00 CofMax=   10.00 Det=-7.87D-15
 Inversion failed.  Reducing to 16 matrices.
 Large coefficients: NSaved= 16 BigCof=    0.00 CofMax=   10.00 Det=-8.70D-15
 Inversion failed.  Reducing to 15 matrices.
 Coeff-Com: -0.550D-07 0.950D-08-0.139D-05-0.156D-05-0.307D-05-0.347D-04
 Coeff-Com: -0.400D-04-0.612D-04-0.393D-03-0.385D-03-0.382D-03 0.305D-02
 Coeff-Com:  0.531D-01 0.135D+00 0.810D+00
 Coeff:     -0.550D-07 0.950D-08-0.139D-05-0.156D-05-0.307D-05-0.347D-04
 Coeff:     -0.400D-04-0.612D-04-0.393D-03-0.385D-03-0.382D-03 0.305D-02
 Coeff:      0.531D-01 0.135D+00 0.810D+00
 Gap=     0.130 Goal=   None    Shift=    0.000
 RMSDP=1.34D-08 MaxDP=1.01D-06 DE= 6.91D-11 OVMax= 1.74D-08

 Cycle  19  Pass 1  IDiag  1:
 E= -1277.33705441475     Delta-E=       -0.000000000017 Rises=F Damp=F
 DIIS: error= 8.12D-10 at cycle  19 NSaved=  16.
 NSaved=16 IEnMin=14 EnMin= -1277.33705441480     IErMin=16 ErrMin= 8.12D-10
 ErrMax= 8.12D-10  0.00D+00 EMaxC= 1.00D-01 BMatC= 4.99D-16 BMatP= 6.54D-16
 IDIUse=1 WtCom= 1.00D+00 WtEn= 0.00D+00
 Large coefficients: NSaved= 16 BigCof=    0.00 CofMax=   10.00 Det=-1.40D-15
 Inversion failed.  Reducing to 15 matrices.
 Coeff-Com: -0.121D-06-0.574D-06-0.192D-05-0.405D-05-0.875D-05 0.355D-05
 Coeff-Com:  0.974D-04 0.240D-03-0.515D-03-0.315D-02-0.491D-02-0.391D-01
 Coeff-Com:  0.455D-02 0.549D+00 0.494D+00
 Coeff:     -0.121D-06-0.574D-06-0.192D-05-0.405D-05-0.875D-05 0.355D-05
 Coeff:      0.974D-04 0.240D-03-0.515D-03-0.315D-02-0.491D-02-0.391D-01
 Coeff:      0.455D-02 0.549D+00 0.494D+00
 Gap=     0.130 Goal=   None    Shift=    0.000
 RMSDP=8.63D-09 MaxDP=6.51D-07 DE=-1.68D-11 OVMax= 8.42D-09

 Error on total polarization charges =  0.01908
 SCF Done:  E(RB3LYP) =  -1277.33705441     A.U. after   19 cycles
            NFock= 19  Conv=0.86D-08     -V/T= 2.0069
 KE= 1.268634459797D+03 PE=-5.318810015848D+03 EE= 1.626431256519D+03
 Leave Link  502 at Sat Jul  8 04:11:31 2017, MaxMem= 34359738368 cpu:       727.2
 (Enter /share/sw/non-free/gaussian/g09/l801.exe)
 DoSCS=F DFT=T ScalE2(SS,OS)=  1.000000  1.000000
 Range of M.O.s used for correlation:     1   299
 NBasis=   299 NAE=    61 NBE=    61 NFC=     0 NFV=     0
 NROrb=    299 NOA=    61 NOB=    61 NVA=   238 NVB=   238

 **** Warning!!: The largest alpha MO coefficient is  0.13105664D+03

 Leave Link  801 at Sat Jul  8 04:11:32 2017, MaxMem= 34359738368 cpu:         2.5
 (Enter /share/sw/non-free/gaussian/g09/l1101.exe)
 Using compressed storage, NAtomX=    20.
 Will process     21 centers per pass.
 R6Disp: Adding Grimme-D3(BJ) dispersion energy 1st derivatives to the gradient.
 Leave Link 1101 at Sat Jul  8 04:11:33 2017, MaxMem= 34359738368 cpu:        18.8
 (Enter /share/sw/non-free/gaussian/g09/l1102.exe)
 Symmetrizing basis deriv contribution to polar:
 IMax=3 JMax=2 DiffMx= 0.00D+00
 Leave Link 1102 at Sat Jul  8 04:11:34 2017, MaxMem= 34359738368 cpu:         3.7
 (Enter /share/sw/non-free/gaussian/g09/l1110.exe)
 Forming Gx(P) for the SCF density, NAtomX=    20.
 Integral derivatives from FoFJK, PRISM(SPDF).
 Do as many integral derivatives as possible in FoFJK.
 G2DrvN: MDV=   34359738104.
 G2DrvN: will do    21 centers at a time, making    1 passes.
 Calling FoFCou, ICntrl=  3107 FMM=F I1Cent=   0 AccDes= 0.00D+00.
 FoFJK:  IHMeth= 1 ICntrl=    3107 DoSepK=F KAlg= 0 I1Cent=   0 FoldK=F
 IRaf=         0 NMat=   1 IRICut=       1 DoRegI=T DoRafI=F ISym2E= 0.
 FoFCou: FMM=F IPFlag=           0 FMFlag=      100000 FMFlg1=           0
         NFxFlg=           0 DoJE=F BraDBF=F KetDBF=F FulRan=T
         wScrn=  0.000000 ICntrl=    3107 IOpCl=  0 I1Cent=           0 NGrid=           0
         NMat0=    1 NMatS0=      1 NMatT0=    0 NMatD0=    1 NMtDS0=    0 NMtDT0=    0
 Symmetry not used in FoFCou.
 NEqPCM:  Using equilibrium solvation (IEInf=0, Eps=  37.2190, EpsInf=   2.0463)
 G2PCM: DoFxE=T DoFxN=T DoGrad=T DoDP/DQ/DG/TGxP=FFFF NFrqRd=   0 IEInf=0 SqF1=F DoCFld=F IF1Alg=4.
 GePol: Maximum number of non-zero 1st derivatives   =     261
 End of G2Drv F.D. properties file   721 does not exist.
 End of G2Drv F.D. properties file   722 does not exist.
 End of G2Drv F.D. properties file   788 does not exist.
 Leave Link 1110 at Sat Jul  8 04:11:58 2017, MaxMem= 34359738368 cpu:       750.4
 (Enter /share/sw/non-free/gaussian/g09/l1002.exe)
 Minotr:  Closed shell wavefunction.
          IDoAtm=11111111111111111111
 NEqPCM:  Using equilibrium solvation (IEInf=0, Eps=  37.2190, EpsInf=   2.0463)
          Direct CPHF calculation.
          Differentiating once with respect to nuclear coordinates.
          Requested convergence is 1.0D-08 RMS, and 1.0D-07 maximum.
          Secondary convergence is 1.0D-12 RMS, and 1.0D-12 maximum.
          NewPWx=T KeepS1=F KeepF1=F KeepIn=T MapXYZ=F SortEE=F KeepMc=T.
          MDV=   34359737865 using IRadAn=       2.
 Generate precomputed XC quadrature information.
 Keep R1 ints in memory in canonical form, NReq=1019290509.
 FoFCou: FMM=F IPFlag=           0 FMFlag=           0 FMFlg1=           0
         NFxFlg=           0 DoJE=F BraDBF=F KetDBF=F FulRan=T
         wScrn=  0.000000 ICntrl=     600 IOpCl=  0 I1Cent=           0 NGrid=           0
         NMat0=    1 NMatS0=  44850 NMatT0=    0 NMatD0=    1 NMtDS0=    0 NMtDT0=    0
 Symmetry not used in FoFCou.
          Solving linear equations simultaneously, MaxMat=       0.
          There are    63 degrees of freedom in the 1st order CPHF.  IDoFFX=6 NUNeed=     0.
     58 vectors produced by pass  0 Test12= 2.30D-14 1.59D-09 XBig12= 3.93D-01 1.92D-01.
 AX will form    58 AO Fock derivatives at one time.
     57 vectors produced by pass  1 Test12= 2.30D-14 1.59D-09 XBig12= 1.28D-01 1.01D-01.
     57 vectors produced by pass  2 Test12= 2.30D-14 1.59D-09 XBig12= 1.73D-03 8.29D-03.
     57 vectors produced by pass  3 Test12= 2.30D-14 1.59D-09 XBig12= 9.16D-06 3.79D-04.
     57 vectors produced by pass  4 Test12= 2.30D-14 1.59D-09 XBig12= 3.54D-08 1.89D-05.
     57 vectors produced by pass  5 Test12= 2.30D-14 1.59D-09 XBig12= 8.33D-11 8.93D-07.
     48 vectors produced by pass  6 Test12= 2.30D-14 1.59D-09 XBig12= 7.22D-12 2.39D-07.
     29 vectors produced by pass  7 Test12= 2.30D-14 1.59D-09 XBig12= 4.76D-13 5.54D-08.
      6 vectors produced by pass  8 Test12= 2.30D-14 1.59D-09 XBig12= 3.26D-15 4.49D-09.
      1 vectors produced by pass  9 Test12= 2.30D-14 1.59D-09 XBig12= 5.39D-16 2.68D-09.
 InvSVY:  IOpt=1 It=  1 EMax= 9.99D-16
 Solved reduced A of dimension   427 with    63 vectors.
 End of Minotr F.D. properties file   721 does not exist.
 End of Minotr F.D. properties file   722 does not exist.
 End of Minotr F.D. properties file   788 does not exist.
 Leave Link 1002 at Sat Jul  8 04:12:56 2017, MaxMem= 34359738368 cpu:      1711.7
 (Enter /share/sw/non-free/gaussian/g09/l601.exe)
 Copying SCF densities to generalized density rwf, IOpCl= 0 IROHF=0.

 **********************************************************************

            Population analysis using the SCF density.

 **********************************************************************

 Orbital symmetries:
       Occupied  (A) (A) (A) (A) (A) (A) (A) (A) (A) (A) (A) (A)
                 (A) (A) (A) (A) (A) (A) (A) (A) (A) (A) (A) (A)
                 (A) (A) (A) (A) (A) (A) (A) (A) (A) (A) (A) (A)
                 (A) (A) (A) (A) (A) (A) (A) (A) (A) (A) (A) (A)
                 (A) (A) (A) (A) (A) (A) (A) (A) (A) (A) (A) (A)
                 (A)
       Virtual   (A) (A) (A) (A) (A) (A) (A) (A) (A) (A) (A) (A)
                 (A) (A) (A) (A) (A) (A) (A) (A) (A) (A) (A) (A)
                 (A) (A) (A) (A) (A) (A) (A) (A) (A) (A) (A) (A)
                 (A) (A) (A) (A) (A) (A) (A) (A) (A) (A) (A) (A)
                 (A) (A) (A) (A) (A) (A) (A) (A) (A) (A) (A) (A)
                 (A) (A) (A) (A) (A) (A) (A) (A) (A) (A) (A) (A)
                 (A) (A) (A) (A) (A) (A) (A) (A) (A) (A) (A) (A)
                 (A) (A) (A) (A) (A) (A) (A) (A) (A) (A) (A) (A)
                 (A) (A) (A) (A) (A) (A) (A) (A) (A) (A) (A) (A)
                 (A) (A) (A) (A) (A) (A) (A) (A) (A) (A) (A) (A)
                 (A) (A) (A) (A) (A) (A) (A) (A) (A) (A) (A) (A)
                 (A) (A) (A) (A) (A) (A) (A) (A) (A) (A) (A) (A)
                 (A) (A) (A) (A) (A) (A) (A) (A) (A) (A) (A) (A)
                 (A) (A) (A) (A) (A) (A) (A) (A) (A) (A) (A) (A)
                 (A) (A) (A) (A) (A) (A) (A) (A) (A) (A) (A) (A)
                 (A) (A) (A) (A) (A) (A) (A) (A) (A) (A) (A) (A)
                 (A) (A) (A) (A) (A) (A) (A) (A) (A) (A) (A) (A)
                 (A) (A) (A) (A) (A) (A) (A) (A) (A) (A) (A) (A)
                 (A) (A) (A) (A) (A) (A) (A) (A) (A) (A) (A) (A)
                 (A) (A) (A) (A) (A) (A) (A) (A) (A) (A)
 The electronic state is 1-A.
 Alpha  occ. eigenvalues -- -101.56390 -24.62616 -19.19665 -19.19391 -19.19389
 Alpha  occ. eigenvalues --  -19.19300 -19.13571 -14.58586 -14.58222 -10.32930
 Alpha  occ. eigenvalues --  -10.26367 -10.25523 -10.23887 -10.22895 -10.21770
 Alpha  occ. eigenvalues --   -9.47874  -7.24319  -7.23311  -7.23243  -1.23685
 Alpha  occ. eigenvalues --   -1.23259  -1.08049  -1.06050  -1.05711  -0.98901
 Alpha  occ. eigenvalues --   -0.91932  -0.87140  -0.83517  -0.79561  -0.72831
 Alpha  occ. eigenvalues --   -0.70015  -0.63177  -0.59872  -0.57600  -0.54646
 Alpha  occ. eigenvalues --   -0.54047  -0.53777  -0.53077  -0.52246  -0.51084
 Alpha  occ. eigenvalues --   -0.50564  -0.48818  -0.46294  -0.44249  -0.42027
 Alpha  occ. eigenvalues --   -0.39635  -0.38766  -0.36753  -0.34692  -0.34431
 Alpha  occ. eigenvalues --   -0.33664  -0.32847  -0.32570  -0.32408  -0.31720
 Alpha  occ. eigenvalues --   -0.31541  -0.30323  -0.29987  -0.29620  -0.28589
 Alpha  occ. eigenvalues --   -0.23858
 Alpha virt. eigenvalues --   -0.10831  -0.09570  -0.01984  -0.01340   0.00747
 Alpha virt. eigenvalues --    0.01337   0.02876   0.03023   0.05082   0.05139
 Alpha virt. eigenvalues --    0.05753   0.06332   0.07821   0.08413   0.08648
 Alpha virt. eigenvalues --    0.09566   0.09921   0.10901   0.11629   0.11913
 Alpha virt. eigenvalues --    0.12670   0.13236   0.13296   0.13642   0.14609
 Alpha virt. eigenvalues --    0.14735   0.15881   0.16073   0.16340   0.17143
 Alpha virt. eigenvalues --    0.17570   0.17748   0.18045   0.18781   0.19465
 Alpha virt. eigenvalues --    0.19934   0.20532   0.20944   0.21493   0.21820
 Alpha virt. eigenvalues --    0.22265   0.22682   0.22900   0.23793   0.23964
 Alpha virt. eigenvalues --    0.24537   0.24748   0.24828   0.25890   0.26883
 Alpha virt. eigenvalues --    0.27012   0.27844   0.28106   0.29025   0.29666
 Alpha virt. eigenvalues --    0.30162   0.31303   0.31737   0.32569   0.32913
 Alpha virt. eigenvalues --    0.33207   0.33822   0.34327   0.34704   0.35073
 Alpha virt. eigenvalues --    0.35686   0.36847   0.37823   0.38643   0.40063
 Alpha virt. eigenvalues --    0.40782   0.41700   0.41942   0.42764   0.45529
 Alpha virt. eigenvalues --    0.47100   0.47404   0.48227   0.51087   0.51515
 Alpha virt. eigenvalues --    0.52690   0.54414   0.56405   0.61051   0.62554
 Alpha virt. eigenvalues --    0.63412   0.65936   0.67313   0.68170   0.70205
 Alpha virt. eigenvalues --    0.72317   0.73034   0.73617   0.75100   0.78052
 Alpha virt. eigenvalues --    0.78882   0.80663   0.81711   0.83324   0.85632
 Alpha virt. eigenvalues --    0.88001   0.89450   0.90904   0.92891   0.94424
 Alpha virt. eigenvalues --    0.94829   0.97981   0.98295   1.01205   1.04655
 Alpha virt. eigenvalues --    1.05185   1.06463   1.07804   1.08511   1.09396
 Alpha virt. eigenvalues --    1.10967   1.15453   1.15928   1.16179   1.17210
 Alpha virt. eigenvalues --    1.18095   1.18511   1.19196   1.19912   1.20384
 Alpha virt. eigenvalues --    1.21060   1.21785   1.24012   1.24774   1.26688
 Alpha virt. eigenvalues --    1.27841   1.28088   1.29087   1.30132   1.31263
 Alpha virt. eigenvalues --    1.33015   1.33514   1.35441   1.36280   1.36603
 Alpha virt. eigenvalues --    1.37932   1.39360   1.40790   1.41467   1.43157
 Alpha virt. eigenvalues --    1.45130   1.46321   1.48345   1.50643   1.55208
 Alpha virt. eigenvalues --    1.57101   1.62418   1.65915   1.68657   1.70417
 Alpha virt. eigenvalues --    1.71294   1.72393   1.73543   1.74711   1.75991
 Alpha virt. eigenvalues --    1.76950   1.77713   1.79734   1.80530   1.81040
 Alpha virt. eigenvalues --    1.81449   1.82983   1.84229   1.85567   1.87491
 Alpha virt. eigenvalues --    1.89982   1.91045   1.91624   1.92464   1.93293
 Alpha virt. eigenvalues --    1.94071   1.96633   1.96802   2.00047   2.00330
 Alpha virt. eigenvalues --    2.01637   2.04562   2.08123   2.08892   2.12870
 Alpha virt. eigenvalues --    2.14537   2.15426   2.17234   2.18016   2.19688
 Alpha virt. eigenvalues --    2.21767   2.24528   2.26102   2.27679   2.29698
 Alpha virt. eigenvalues --    2.31194   2.40747   2.45113   2.47451   2.50391
 Alpha virt. eigenvalues --    2.52276   2.53658   2.54128   2.59357   2.62666
 Alpha virt. eigenvalues --    2.64603   2.65834   2.70397   2.71984   2.75036
 Alpha virt. eigenvalues --    2.76809   2.82607   2.84233   2.85176   3.01088
 Alpha virt. eigenvalues --    3.01596   3.01718   3.02586   3.04631   3.14017
 Alpha virt. eigenvalues --    3.15260   3.24172   3.37574   4.01718   4.09430
 Alpha virt. eigenvalues --    4.21905   4.24065   4.25964   4.28256   4.38480
 Alpha virt. eigenvalues --    4.43685   4.48469   4.50618   4.52815   4.75489
 Alpha virt. eigenvalues --    4.76142   4.78340   6.23800
          Condensed to atoms (all electrons):
               1          2          3          4          5          6
     1  C   22.354327  -1.742575  -1.428272  -4.329072  -7.050277   0.103254
     2  C   -1.742575  16.498746  -0.555489   1.956718  -4.985294   0.096063
     3  C   -1.428272  -0.555489  12.253420  -1.334634  -4.237736   0.075606
     4  C   -4.329072   1.956718  -1.334634  18.681442   0.296682  -0.035724
     5  C   -7.050277  -4.985294  -4.237736   0.296682  28.654487  -0.006494
     6  H    0.103254   0.096063   0.075606  -0.035724  -0.006494   0.449800
     7  H    0.082841   0.122751   0.176352  -0.083504  -0.000657  -0.000099
     8  C   -2.443393  -3.720427   0.399357  -7.260770  -6.532083   0.097204
     9  H   -0.035297  -0.010985   0.037397   0.284626   0.011297   0.000008
    10  N    0.507069  -1.160705   0.064667  -0.037237   0.159831  -0.036251
    11  O    0.088531  -0.201964  -0.218067   0.160368   0.108930  -0.001842
    12  O   -0.196590  -0.209469   0.236649  -0.016822   0.114044   0.017786
    13  F    0.093759  -0.094409   0.075967  -0.247850  -0.367450  -0.000095
    14  N    0.208940   0.106545   0.051152   0.043177  -1.250466  -0.038907
    15  O    0.251560   0.041372  -0.027637   0.075320   0.054189  -0.003035
    16  O   -0.317222   0.151974  -0.016376  -0.085844   0.018001   0.018955
    17  Cl   0.156651  -0.128886  -0.042467  -1.009849   1.087184  -0.000502
    18  O    0.116320  -0.002210   0.006732  -0.081096   0.039907   0.000000
    19  H   -0.009897   0.001269  -0.000382   0.038204  -0.008353   0.000000
    20  H    0.004268   0.000484   0.000168  -0.000206  -0.000650   0.000000
               7          8          9         10         11         12
     1  C    0.082841  -2.443393  -0.035297   0.507069   0.088531  -0.196590
     2  C    0.122751  -3.720427  -0.010985  -1.160705  -0.201964  -0.209469
     3  C    0.176352   0.399357   0.037397   0.064667  -0.218067   0.236649
     4  C   -0.083504  -7.260770   0.284626  -0.037237   0.160368  -0.016822
     5  C   -0.000657  -6.532083   0.011297   0.159831   0.108930   0.114044
     6  H   -0.000099   0.097204   0.000008  -0.036251  -0.001842   0.017786
     7  H    0.475580   0.022602  -0.004566  -0.042245   0.017895  -0.002194
     8  C    0.022602  24.642280   0.013526   0.090361  -0.024341  -0.022691
     9  H   -0.004566   0.013526   0.476574   0.000217  -0.000045   0.000053
    10  N   -0.042245   0.090361   0.000217   7.076085   0.351952   0.368320
    11  O    0.017895  -0.024341  -0.000045   0.351952   7.927074  -0.103514
    12  O   -0.002194  -0.022691   0.000053   0.368320  -0.103514   7.908174
    13  F   -0.000082   0.542799  -0.001624   0.001231  -0.000081  -0.000089
    14  N   -0.000032   0.318743   0.000455  -0.023910  -0.002257   0.006734
    15  O   -0.000002  -0.460219  -0.000048  -0.002577  -0.000090   0.000244
    16  O    0.000004   0.159284   0.000057   0.009720   0.000313  -0.002246
    17  Cl  -0.000794  -0.649477   0.000597   0.005397   0.000930   0.000800
    18  O    0.000000  -0.141655  -0.000026   0.000056  -0.000001   0.000001
    19  H    0.000000   0.028244   0.000012  -0.000007   0.000000   0.000000
    20  H    0.000000   0.002253   0.000000   0.000001   0.000000   0.000000
              13         14         15         16         17         18
     1  C    0.093759   0.208940   0.251560  -0.317222   0.156651   0.116320
     2  C   -0.094409   0.106545   0.041372   0.151974  -0.128886  -0.002210
     3  C    0.075967   0.051152  -0.027637  -0.016376  -0.042467   0.006732
     4  C   -0.247850   0.043177   0.075320  -0.085844  -1.009849  -0.081096
     5  C   -0.367450  -1.250466   0.054189   0.018001   1.087184   0.039907
     6  H   -0.000095  -0.038907  -0.003035   0.018955  -0.000502   0.000000
     7  H   -0.000082  -0.000032  -0.000002   0.000004  -0.000794   0.000000
     8  C    0.542799   0.318743  -0.460219   0.159284  -0.649477  -0.141655
     9  H   -0.001624   0.000455  -0.000048   0.000057   0.000597  -0.000026
    10  N    0.001231  -0.023910  -0.002577   0.009720   0.005397   0.000056
    11  O   -0.000081  -0.002257  -0.000090   0.000313   0.000930  -0.000001
    12  O   -0.000089   0.006734   0.000244  -0.002246   0.000800   0.000001
    13  F    9.619718  -0.001781   0.002452  -0.000611  -0.127073  -0.018993
    14  N   -0.001781   7.328243   0.318540   0.261106   0.055296  -0.001367
    15  O    0.002452   0.318540   7.974779  -0.112865  -0.031089   0.014642
    16  O   -0.000611   0.261106  -0.112865   7.963603   0.012722   0.002531
    17  Cl  -0.127073   0.055296  -0.031089   0.012722  17.533574   0.021407
    18  O   -0.018993  -0.001367   0.014642   0.002531   0.021407   8.837464
    19  H    0.058571  -0.010601   0.001518  -0.000190  -0.021393   0.094699
    20  H   -0.001646   0.010999   0.003643   0.000588  -0.007276   0.191003
              19         20
     1  C   -0.009897   0.004268
     2  C    0.001269   0.000484
     3  C   -0.000382   0.000168
     4  C    0.038204  -0.000206
     5  C   -0.008353  -0.000650
     6  H    0.000000   0.000000
     7  H    0.000000   0.000000
     8  C    0.028244   0.002253
     9  H    0.000012   0.000000
    10  N   -0.000007   0.000001
    11  O    0.000000   0.000000
    12  O    0.000000   0.000000
    13  F    0.058571  -0.001646
    14  N   -0.010601   0.010999
    15  O    0.001518   0.003643
    16  O   -0.000190   0.000588
    17  Cl  -0.021393  -0.007276
    18  O    0.094699   0.191003
    19  H    0.245940  -0.006504
    20  H   -0.006504   0.296838
 Mulliken charges:
               1
     1  C   -0.414927
     2  C   -0.163509
     3  C    0.483591
     4  C   -1.013929
     5  C   -0.105091
     6  H    0.264272
     7  H    0.236151
     8  C    0.938403
     9  H    0.227771
    10  N   -0.331975
    11  O   -0.103790
    12  O   -0.099189
    13  F   -0.532711
    14  N   -0.380610
    15  O   -0.100697
    16  O   -0.063501
    17  Cl   0.144249
    18  O   -1.079414
    19  H    0.588869
    20  H    0.506036
 Sum of Mulliken charges =  -1.00000
 Mulliken charges with hydrogens summed into heavy atoms:
               1
     1  C   -0.150654
     2  C   -0.163509
     3  C    0.719742
     4  C   -0.786158
     5  C   -0.105091
     8  C    0.938403
    10  N   -0.331975
    11  O   -0.103790
    12  O   -0.099189
    13  F   -0.532711
    14  N   -0.380610
    15  O   -0.100697
    16  O   -0.063501
    17  Cl   0.144249
    18  O    0.015491
 APT charges:
               1
     1  C   -1.256672
     2  C    0.915597
     3  C   -0.395507
     4  C   -0.994967
     5  C    0.256576
     6  H    0.608427
     7  H    0.764436
     8  C    0.012561
     9  H    0.664567
    10  N   -1.033115
    11  O    0.307006
    12  O    0.135810
    13  F   -0.621310
    14  N   -0.798764
    15  O    0.127150
    16  O    0.087573
    17  Cl   0.171713
    18  O   -0.753361
    19  H    0.313627
    20  H    0.488653
 Sum of APT charges =  -1.00000
 APT charges with hydrogens summed into heavy atoms:
               1
     1  C   -0.648245
     2  C    0.915597
     3  C    0.368929
     4  C   -0.330400
     5  C    0.256576
     8  C    0.012561
    10  N   -1.033115
    11  O    0.307006
    12  O    0.135810
    13  F   -0.621310
    14  N   -0.798764
    15  O    0.127150
    16  O    0.087573
    17  Cl   0.171713
    18  O    0.048919
 Electronic spatial extent (au):  <R**2>=           3831.1539
 Charge=             -1.0000 electrons
 Dipole moment (field-independent basis, Debye):
    X=             -3.5856    Y=             -2.8996    Z=             -5.4399  Tot=              7.1314
 Quadrupole moment (field-independent basis, Debye-Ang):
   XX=           -158.6714   YY=           -105.7134   ZZ=           -108.3009
   XY=              4.4794   XZ=            -11.9304   YZ=              5.6405
 Traceless Quadrupole moment (field-independent basis, Debye-Ang):
   XX=            -34.4429   YY=             18.5152   ZZ=             15.9277
   XY=              4.4794   XZ=            -11.9304   YZ=              5.6405
 Octapole moment (field-independent basis, Debye-Ang**2):
  XXX=             68.0956  YYY=            -43.3137  ZZZ=            -19.9697  XYY=             -3.4070
  XXY=             -2.1703  XXZ=            -74.2440  XZZ=            -37.6630  YZZ=              7.7362
  YYZ=              6.2733  XYZ=              9.6208
 Hexadecapole moment (field-independent basis, Debye-Ang**3):
 XXXX=          -4347.6982 YYYY=          -1153.2947 ZZZZ=           -542.2236 XXXY=             67.4539
 XXXZ=           -168.9103 YYYX=             -7.7651 YYYZ=             26.3228 ZZZX=            -97.7569
 ZZZY=             -9.4690 XXYY=           -773.3908 XXZZ=           -759.5413 YYZZ=           -274.9622
 XXYZ=             18.0063 YYXZ=             13.6091 ZZXY=             -3.0864
 N-N= 1.146407245118D+03 E-N=-5.318810015887D+03  KE= 1.268634459797D+03
  Exact polarizability:   0.000   0.000   0.000   0.000   0.000   0.000
 Approx polarizability: 369.677  -5.108 267.079 -18.922  -8.588 133.220
 No NMR shielding tensors so no spin-rotation constants.
 Leave Link  601 at Sat Jul  8 04:12:58 2017, MaxMem= 34359738368 cpu:        12.2
 (Enter /share/sw/non-free/gaussian/g09/l701.exe)
 Compute integral second derivatives.
 ... and contract with generalized density number  0.
 R6Disp: Adding Grimme-D3(BJ) dispersion energy 2nd derivatives to the Hessian.
 D2PCM: PCM CHGder 2nd derivatives, FixD1E=F FixD2E=F DoIter=F DoCFld=F I1PDM=0
 GePol: Maximum number of non-zero 2nd derivatives   =     261
 Leave Link  701 at Sat Jul  8 04:13:03 2017, MaxMem= 34359738368 cpu:       154.9
 (Enter /share/sw/non-free/gaussian/g09/l702.exe)
 L702 exits ... SP integral derivatives will be done elsewhere.
 Leave Link  702 at Sat Jul  8 04:13:04 2017, MaxMem= 34359738368 cpu:         1.1
 (Enter /share/sw/non-free/gaussian/g09/l703.exe)
 Compute integral second derivatives, UseDBF=F ICtDFT=           0.
 Integral derivatives from FoFJK, PRISM(SPDF).
 Calling FoFJK, ICntrl=    100147 FMM=F ISym2X=0 I1Cent= 0 IOpClX= 0 NMat=1 NMatS=1 NMatT=0.
 FoFJK:  IHMeth= 1 ICntrl=  100147 DoSepK=F KAlg= 0 I1Cent=   0 FoldK=F
 IRaf=         0 NMat=   1 IRICut=       1 DoRegI=T DoRafI=F ISym2E= 0.
 FoFCou: FMM=F IPFlag=           0 FMFlag=      100000 FMFlg1=         800
         NFxFlg=           0 DoJE=F BraDBF=F KetDBF=F FulRan=T
         wScrn=  0.000000 ICntrl=  100147 IOpCl=  0 I1Cent=           0 NGrid=           0
         NMat0=    1 NMatS0=      1 NMatT0=    0 NMatD0=    1 NMtDS0=    0 NMtDT0=    0
 Symmetry not used in FoFCou.
 Leave Link  703 at Sat Jul  8 04:13:37 2017, MaxMem= 34359738368 cpu:      1049.1
 (Enter /share/sw/non-free/gaussian/g09/l716.exe)
 Dipole        =-1.41070046D+00-1.14079099D+00-2.14023487D+00
 Polarizability= 0.00000000D+00 0.00000000D+00 0.00000000D+00
                 0.00000000D+00 0.00000000D+00 0.00000000D+00
 ***** Axes restored to original set *****
 -------------------------------------------------------------------
 Center     Atomic                   Forces (Hartrees/Bohr)
 Number     Number              X              Y              Z
 -------------------------------------------------------------------
      1        6          -0.000926091    0.001906497    0.000454434
      2        6           0.000104409    0.000431028   -0.000205545
      3        6          -0.001095181   -0.001766444    0.000341629
      4        6          -0.000313987   -0.001835346   -0.000826766
      5        6          -0.000215545    0.000435324   -0.000348614
      6        1           0.000813794   -0.002860905   -0.000153013
      7        1           0.002223678    0.002100595   -0.000174438
      8        6           0.000930661   -0.000353728   -0.001064011
      9        1          -0.000844028    0.002649479    0.000563701
     10        7           0.004358002   -0.001162444   -0.000696046
     11        8          -0.002731604   -0.003357777    0.000343729
     12        8          -0.000994327    0.004353426    0.000231882
     13        9           0.000025601   -0.000092588    0.000186401
     14        7          -0.003293508   -0.004005745    0.000533052
     15        8           0.004863826   -0.001000806    0.000589985
     16        8          -0.001844311    0.003853239   -0.000584680
     17       17          -0.001192056    0.000420172    0.001014108
     18        8           0.002258649   -0.001463580    0.003141528
     19        1          -0.002804561   -0.001860987   -0.000140825
     20        1           0.000676580    0.003610591   -0.003206512
 -------------------------------------------------------------------
 Cartesian Forces:  Max     0.004863826 RMS     0.001947960
 FormGI is forming the generalized inverse of G from B-inverse, IUseBI=4.
 Leave Link  716 at Sat Jul  8 04:13:38 2017, MaxMem= 34359738368 cpu:         6.4
 (Enter /share/sw/non-free/gaussian/g09/l103.exe)

 GradGradGradGradGradGradGradGradGradGradGradGradGradGradGradGradGradGrad
 Berny optimization.
 Red2BG is reusing G-inverse.
 Internal  Forces:  Max     0.004984054 RMS     0.001340456
 Search for a saddle point.
 Step number   1 out of a maximum of  101
 All quantities printed in internal units (Hartrees-Bohrs-Radians)
 Swapping is turned off.
 Second derivative matrix not updated -- analytic derivatives used.
 ITU=  0
     Eigenvalues ---   -0.03101   0.00167   0.00391   0.00471   0.00772
     Eigenvalues ---    0.00949   0.01422   0.01475   0.01503   0.01598
     Eigenvalues ---    0.01836   0.01937   0.02249   0.02411   0.02509
     Eigenvalues ---    0.02796   0.05089   0.05930   0.08154   0.10762
     Eigenvalues ---    0.10975   0.11235   0.11471   0.12187   0.13785
     Eigenvalues ---    0.14746   0.15232   0.17318   0.17828   0.19762
     Eigenvalues ---    0.20211   0.21913   0.23044   0.24017   0.25973
     Eigenvalues ---    0.28991   0.33158   0.34916   0.36088   0.36497
     Eigenvalues ---    0.37039   0.39039   0.39628   0.43008   0.46863
     Eigenvalues ---    0.47248   0.48386   0.50551   0.53406   0.53886
     Eigenvalues ---    0.54698   0.55114   0.72971   0.74910
 Eigenvectors required to have negative eigenvalues:
                          R12       D32       D29       R16       D26
   1                    0.87784   0.16646   0.16581  -0.15788  -0.15421
                          D23       A25       R13       A19       R8
   1                   -0.14949  -0.10366  -0.08428  -0.08210  -0.07678
 RFO step:  Lambda0=1.605730449D-06 Lambda=-3.66797210D-04.
 Linear search not attempted -- option 19 set.
 Iteration  1 RMS(Cart)=  0.01983636 RMS(Int)=  0.00021036
 Iteration  2 RMS(Cart)=  0.00033500 RMS(Int)=  0.00000218
 Iteration  3 RMS(Cart)=  0.00000012 RMS(Int)=  0.00000218
 ITry= 1 IFail=0 DXMaxC= 1.10D-01 DCOld= 1.00D+10 DXMaxT= 3.00D-01 DXLimC= 3.00D+00 Rises=F
 Variable       Old X    -DE/DX   Delta X   Delta X   Delta X     New X
                                 (Linear)    (Quad)   (Total)
    R1        2.61951  -0.00103   0.00000  -0.00227  -0.00227   2.61723
    R2        2.63352  -0.00058   0.00000  -0.00020  -0.00020   2.63332
    R3        2.05035  -0.00298   0.00000  -0.00820  -0.00820   2.04214
    R4        2.67957  -0.00050   0.00000   0.00000   0.00000   2.67958
    R5        2.71331  -0.00067   0.00000  -0.00518  -0.00518   2.70813
    R6        2.58333  -0.00117   0.00000  -0.00317  -0.00316   2.58016
    R7        2.05465  -0.00306   0.00000  -0.00845  -0.00845   2.04620
    R8        2.71962  -0.00049   0.00000   0.00087   0.00087   2.72049
    R9        2.05482  -0.00282   0.00000  -0.00772  -0.00772   2.04711
   R10        2.72059  -0.00089   0.00000   0.00149   0.00149   2.72208
   R11        2.72597  -0.00111   0.00000  -0.00751  -0.00751   2.71846
   R12        3.45815   0.00004   0.00000  -0.00502  -0.00502   3.45313
   R13        3.35936  -0.00161   0.00000  -0.00949  -0.00949   3.34987
   R14        2.34377   0.00434   0.00000   0.00659   0.00659   2.35035
   R15        2.34298   0.00446   0.00000   0.00688   0.00688   2.34986
   R16        3.18953   0.00019   0.00000   0.01509   0.01509   3.20461
   R17        2.33473   0.00498   0.00000   0.00785   0.00785   2.34258
   R18        2.34320   0.00431   0.00000   0.00675   0.00675   2.34994
   R19        1.86154   0.00349   0.00000   0.00645   0.00645   1.86799
   R20        1.82433   0.00485   0.00000   0.00898   0.00898   1.83331
    A1        2.09530  -0.00011   0.00000   0.00091   0.00091   2.09621
    A2        2.10570   0.00001   0.00000  -0.00056  -0.00056   2.10514
    A3        2.08218   0.00010   0.00000  -0.00036  -0.00036   2.08183
    A4        2.10557  -0.00007   0.00000  -0.00068  -0.00069   2.10489
    A5        2.08324  -0.00002   0.00000   0.00036   0.00036   2.08360
    A6        2.09396   0.00009   0.00000   0.00039   0.00039   2.09435
    A7        2.08830   0.00015   0.00000   0.00038   0.00038   2.08868
    A8        2.08900   0.00011   0.00000   0.00132   0.00132   2.09032
    A9        2.10562  -0.00026   0.00000  -0.00173  -0.00173   2.10389
   A10        2.12623   0.00004   0.00000   0.00178   0.00177   2.12800
   A11        2.10757  -0.00006   0.00000  -0.00082  -0.00083   2.10674
   A12        2.04911   0.00001   0.00000  -0.00114  -0.00115   2.04795
   A13        2.11004   0.00024   0.00000   0.00032   0.00032   2.11036
   A14        2.03487   0.00062   0.00000   0.00027   0.00027   2.03514
   A15        2.13603  -0.00087   0.00000  -0.00088  -0.00089   2.13514
   A16        2.02979  -0.00024   0.00000  -0.00256  -0.00255   2.02724
   A17        1.76734   0.00099   0.00000   0.00172   0.00172   1.76906
   A18        1.97270   0.00018   0.00000   0.00005   0.00005   1.97275
   A19        1.81308  -0.00069   0.00000  -0.00144  -0.00144   1.81164
   A20        2.09933   0.00013   0.00000   0.00209   0.00209   2.10142
   A21        1.69774  -0.00032   0.00000   0.00061   0.00061   1.69835
   A22        2.06428  -0.00006   0.00000   0.00053   0.00053   2.06481
   A23        2.07809  -0.00023   0.00000   0.00049   0.00049   2.07858
   A24        2.14081   0.00029   0.00000  -0.00102  -0.00102   2.13979
   A25        2.10709  -0.00200   0.00000  -0.01355  -0.01355   2.09354
   A26        2.08155  -0.00031   0.00000   0.00142   0.00142   2.08297
   A27        2.06469  -0.00003   0.00000   0.00126   0.00126   2.06595
   A28        2.13692   0.00034   0.00000  -0.00268  -0.00268   2.13425
   A29        1.79057   0.00079   0.00000  -0.00217  -0.00217   1.78840
   A30        3.12007  -0.00104   0.00000  -0.02815  -0.02815   3.09192
   A31        3.11224   0.00038   0.00000   0.01068   0.01068   3.12292
    D1       -0.03273   0.00012   0.00000   0.00527   0.00527  -0.02746
    D2        3.13985   0.00006   0.00000   0.00269   0.00269  -3.14064
    D3        3.10654   0.00007   0.00000   0.00318   0.00318   3.10972
    D4       -0.00406   0.00001   0.00000   0.00060   0.00060  -0.00346
    D5       -0.06670  -0.00009   0.00000  -0.00267  -0.00267  -0.06938
    D6       -3.13790   0.00013   0.00000   0.00187   0.00187  -3.13603
    D7        3.07718  -0.00004   0.00000  -0.00060  -0.00061   3.07657
    D8        0.00598   0.00018   0.00000   0.00393   0.00393   0.00992
    D9        0.03609  -0.00008   0.00000  -0.00530  -0.00530   0.03079
   D10       -3.08077  -0.00009   0.00000  -0.00390  -0.00390  -3.08468
   D11       -3.13667  -0.00002   0.00000  -0.00271  -0.00271  -3.13938
   D12        0.02964  -0.00003   0.00000  -0.00131  -0.00131   0.02834
   D13        3.12384   0.00003   0.00000   0.00199   0.00199   3.12582
   D14       -0.01936   0.00004   0.00000   0.00235   0.00235  -0.01701
   D15        0.01302  -0.00003   0.00000  -0.00056  -0.00056   0.01246
   D16       -3.13017  -0.00002   0.00000  -0.00019  -0.00019  -3.13037
   D17        0.06096   0.00000   0.00000   0.00279   0.00279   0.06375
   D18       -3.10664  -0.00015   0.00000  -0.00556  -0.00556  -3.11220
   D19       -3.10560   0.00001   0.00000   0.00143   0.00143  -3.10417
   D20        0.00999  -0.00014   0.00000  -0.00693  -0.00692   0.00307
   D21       -0.15267   0.00007   0.00000  -0.00001  -0.00001  -0.15269
   D22        1.79851  -0.00025   0.00000  -0.00173  -0.00173   1.79677
   D23       -2.68705  -0.00009   0.00000  -0.00020  -0.00020  -2.68725
   D24        3.01409   0.00021   0.00000   0.00807   0.00807   3.02216
   D25       -1.31792  -0.00010   0.00000   0.00635   0.00635  -1.31157
   D26        0.47971   0.00006   0.00000   0.00788   0.00788   0.48760
   D27        0.15470  -0.00001   0.00000  -0.00017  -0.00017   0.15452
   D28       -1.76996  -0.00066   0.00000  -0.00021  -0.00021  -1.77017
   D29        2.64263   0.00016   0.00000  -0.00089  -0.00089   2.64174
   D30       -3.06145  -0.00018   0.00000  -0.00493  -0.00493  -3.06637
   D31        1.29708  -0.00084   0.00000  -0.00496  -0.00496   1.29212
   D32       -0.57351  -0.00002   0.00000  -0.00564  -0.00564  -0.57916
   D33        2.90746  -0.00038   0.00000   0.01134   0.01134   2.91880
   D34       -0.22763  -0.00008   0.00000   0.01054   0.01054  -0.21709
   D35       -0.16260  -0.00020   0.00000   0.01590   0.01590  -0.14670
   D36        2.98550   0.00010   0.00000   0.01509   0.01509   3.00059
   D37        2.86811   0.00033   0.00000  -0.00312  -0.00312   2.86499
   D38       -1.30380   0.00020   0.00000  -0.00577  -0.00577  -1.30957
[...]
 15,0.03376824,0.00936113,-0.00406767,0.00027161,0.00125315,-0.00295078
 ,0.00211633,0.00189958,0.39561201,0.06418909,0.00732413,-0.01053114,-0
 .02068241,-0.03763080,0.00273279,-0.03059511,0.03877855,0.00846695,-0.
 06542635,-0.20361767,-0.01193125,0.03070772,-0.23313470,0.00894987,-0.
 00090405,0.00018782,-0.00019500,0.00151376,0.00016990,-0.00046360,0.03
 073457,0.54353942,0.00195989,-0.00154623,0.00668839,0.01101860,-0.0085
 8992,-0.00759129,-0.00744326,0.00930489,0.00731807,0.02876335,0.012608
 36,-0.05788582,0.00882235,-0.02194776,-0.05171383,0.00147216,-0.000233
 18,0.00507196,0.00173421,-0.00051681,0.00853787,-0.10452505,0.02020630
 ,0.07629874,-0.00135679,-0.00046677,0.00020171,-0.00383163,-0.00073960
 ,0.00155973,-0.00658571,0.03010241,0.00313347,-0.07966878,0.08445710,0
 .01190512,-0.00259123,-0.00135525,0.00015277,0.00009850,0.00005266,-0.
 00002490,0.00119601,-0.00014377,-0.00098822,0.00534415,-0.02417376,-0.
 00197729,0.08659475,-0.00091113,0.00013793,0.00026172,0.00056761,0.001
 82975,-0.00065668,0.00038623,-0.00088791,-0.00039751,0.08131223,-0.321
 78622,-0.02986780,-0.00325694,-0.00114837,-0.00034332,0.00002313,-0.00
 000673,0.00000658,0.00010584,0.00075581,0.00049762,0.00701372,-0.01841
 010,-0.00176859,-0.08679001,0.33850985,0.00062958,0.00050930,-0.000595
 57,0.00176946,-0.00099310,0.00726307,0.00043129,-0.00396068,0.00355165
 ,0.01292917,-0.02977209,-0.03671230,0.00045756,-0.00027670,0.00316588,
 -0.00003314,-0.00003937,-0.00013579,-0.00099495,0.00038171,-0.00569663
 ,0.00041771,0.00028248,0.00074144,-0.01464949,0.03225022,0.02711001,-0
 .07743215,-0.01699452,0.01033825,-0.12692937,0.01880131,0.00827879,-0.
 03349074,0.03502647,0.00563052,0.02272994,0.00417091,-0.00491643,0.032
 46007,-0.01220903,-0.00576613,0.00082523,0.00130873,-0.00041896,-0.000
 57128,-0.00403551,-0.00004771,-0.02600857,0.00960064,-0.01298375,0.000
 28039,-0.00067438,-0.00020900,0.63072452,-0.00864835,0.02067463,0.0016
 2151,0.00476353,-0.11916778,-0.00179275,0.03769469,-0.00164642,-0.0049
 8433,-0.00311914,-0.00850839,-0.00000262,-0.01221273,-0.00442832,0.002
 59638,-0.00068313,-0.00332492,0.00000140,-0.00091865,-0.00208609,0.000
 16862,0.00392920,-0.00598120,0.00228269,0.00158704,0.00012390,-0.00027
 755,0.04781721,0.83538216,0.01048991,0.00288637,-0.00778945,0.00792777
 ,-0.00451687,-0.07251570,0.00428580,-0.00400505,-0.00752476,-0.0015072
 1,-0.00046392,0.00526231,-0.00410452,0.00063947,0.00859823,-0.00090499
 ,-0.00035571,-0.00513961,-0.00014433,0.00065243,-0.00235941,0.00327069
 ,-0.00166152,-0.00005750,0.00026360,-0.00000837,0.00198242,-0.05759957
 ,0.00762503,0.23675250,0.00867648,0.01140222,-0.00037796,-0.06848982,-
 0.04292614,0.01153438,0.00246980,-0.00616162,-0.00037936,-0.00595467,-
 0.00199962,0.00131018,-0.01215165,0.00068518,0.00260506,0.00063139,0.0
 0031028,-0.00023483,-0.00289264,0.00062603,0.00034603,0.00830070,-0.00
 503284,0.00417732,-0.00005640,0.00023784,0.00011871,-0.28223573,-0.171
 56427,0.02552389,0.32271125,0.00887040,0.00417977,-0.00146537,-0.03659
 099,0.00433403,0.00481322,0.00934525,-0.00978513,-0.00199914,-0.004658
 85,0.00041034,0.00140439,-0.00599787,0.00350005,0.00148630,0.00076434,
 0.00087534,-0.00021956,0.00207852,0.00310867,-0.00026446,0.00653896,-0
 .00240356,0.00265897,0.00005071,0.00007142,0.00011495,-0.16061816,-0.2
 9504928,0.01815563,0.23052283,0.39714428,-0.00024477,-0.00155702,0.005
 19246,0.01151315,0.00586112,0.01630484,0.00013651,0.00034927,0.0009256
 9,0.00053242,0.00028151,-0.00041130,0.00153419,0.00015190,-0.00145973,
 -0.00002392,-0.00001090,0.00040013,0.00047747,0.00002786,0.00016002,-0
 .00092252,0.00074305,-0.00029207,-0.00000329,-0.00003247,-0.00009037,0
 .02592613,0.01959759,-0.07886864,-0.03704298,-0.02426995,0.03245371,0.
 00207758,0.00441717,0.00002778,-0.02579196,0.05058521,0.00756236,-0.00
 287667,-0.00745232,0.00074107,-0.00514421,0.00152397,0.00146663,-0.005
 02178,0.00266058,0.00090783,-0.00271112,0.00263912,0.00049418,0.000369
 92,0.00046153,-0.00011841,0.00642542,-0.00035588,0.00312496,-0.0007935
 0,0.00016052,0.00006709,-0.15441920,0.10461598,0.01387204,0.03474012,-
 0.04674014,-0.00232920,0.15742759,-0.02114687,-0.00860687,0.00297765,0
 .05325700,-0.02898360,-0.00893000,-0.00181727,0.00762573,0.00057918,0.
 00700088,0.00144577,-0.00188242,0.01173810,-0.00206837,-0.00250914,0.0
 0103374,0.00246252,0.00005153,-0.00045518,0.00078077,0.00020128,-0.010
 01996,0.00294065,-0.00404858,0.00030517,-0.00016135,-0.00016764,0.0924
 0116,-0.42174499,-0.02181708,-0.02233363,-0.10946911,-0.00020748,-0.11
 518979,0.56095838,-0.00055263,-0.00083234,0.00129140,0.00732017,-0.008
 28512,0.01550524,0.00131301,0.00092380,0.00534235,0.00058465,-0.000332
 69,-0.00083643,0.00089063,-0.00028971,-0.00091715,0.00055810,-0.000364
 07,0.00043537,-0.00008708,-0.00004775,0.00004910,-0.00106927,0.0000826
 8,-0.00018041,-0.00000938,0.00003453,-0.00094370,0.01386366,-0.0234860
 8,-0.07815581,-0.00176677,0.00340055,0.02582238,-0.02177930,0.02972576
 ,0.03189423,0.00076454,-0.00162162,-0.00200748,-0.00897294,0.00833129,
 0.00181120,0.01169655,-0.00913430,-0.00483306,-0.02795922,-0.00907248,
 -0.01507578,-0.00320036,0.02053813,-0.01194688,0.00016617,-0.00017208,
 0.00008981,0.00031633,-0.00012104,0.00096011,0.00420787,-0.00367686,0.
 03773542,0.00058724,0.00017551,0.00068652,0.01354723,-0.00241734,-0.00
 194165,-0.00456406,-0.00308685,0.00058845,-0.00341657,0.00494039,0.000
 70594,0.03349790,-0.00905712,-0.00178027,0.00285896,0.00462038,0.00439
 763,-0.00072641,0.00249369,-0.00422065,-0.00161694,-0.00945548,0.00293
 998,-0.00565826,0.01362296,-0.00907515,0.01191710,-0.00002329,0.000081
 47,-0.00041845,0.00006819,0.00007023,0.00056008,-0.00172423,-0.0152001
 6,-0.00558232,0.00024262,0.00062481,0.00013947,-0.00308296,0.00129337,
 0.00053560,0.00136518,0.00075094,-0.00026375,0.00039854,-0.00093044,-0
 .00004269,0.00813664,0.02483691,0.00332118,-0.00215341,-0.00416833,-0.
 01538660,0.01056548,0.00236793,0.01517374,-0.00977330,-0.00582231,-0.0
 3545949,-0.01255896,-0.00917170,-0.01161479,0.02944531,-0.01079089,0.0
 0005353,-0.00021820,0.00009023,0.00022744,-0.00016548,0.00081544,0.042
 58998,-0.00662894,0.06098000,0.00114985,0.00026895,0.00131663,0.019386
 26,-0.00370524,-0.00248648,-0.00653931,-0.00424009,0.00084116,-0.00469
 925,0.00666696,0.00091013,-0.01413526,0.00220960,-0.00049894,-0.058675
 13,-0.03713988,0.00520017,0.01021887,0.02010999,-0.00078046,0.00720314
 ,-0.00695353,-0.00174832,-0.00745313,-0.00040481,0.00180484,-0.1060202
 4,-0.00888691,0.00756991,-0.00066084,0.00080737,0.00008914,0.00000972,
 0.00002924,-0.00008844,0.03752201,-0.01018303,0.00740219,0.00034957,0.
 00126088,0.00030924,-0.01417122,0.00289119,0.00317918,0.00524217,0.002
 52123,-0.00098848,0.00349837,-0.00462309,-0.00073654,-0.01234113,0.000
 13698,-0.01208845,0.78603082,-0.05381089,0.00112367,0.00481053,0.02634
 182,0.02008795,-0.00408300,0.01030886,-0.01184656,-0.00280813,-0.00550
 224,-0.00803452,0.00252039,0.00469344,-0.12579702,0.00277881,0.0037770
 0,-0.00247385,0.00052131,0.00017126,-0.00021398,-0.00018240,-0.0011281
 0,-0.03963584,0.01256425,-0.00117709,-0.00004154,0.00052843,-0.0211174
 5,0.00866567,0.00410871,0.00937271,0.00382069,-0.00138706,0.00475493,-
 0.00817129,-0.00096528,-0.01020910,0.00362327,-0.01410954,-0.10741754,
 0.68740293,0.00918577,0.00716321,-0.00511434,0.00042826,-0.00314112,0.
 00734539,-0.00104483,0.00071194,-0.00040654,0.00154156,-0.00107636,0.0
 0549117,0.00459400,-0.00114337,-0.07622610,-0.00141394,0.00022642,-0.0
 0485116,-0.00006470,0.00009590,-0.00063771,-0.00250259,0.00393344,-0.0
 0769732,-0.00024156,-0.00018437,-0.00061492,0.00198681,-0.00037161,0.0
 0363274,-0.00074754,-0.00018436,-0.00130771,-0.00037650,0.00054052,-0.
 00021674,0.00140193,-0.00006002,0.00226375,0.02045073,-0.05429807,0.23
 630842,0.01564838,-0.00389374,-0.00149047,-0.01061997,-0.00912108,0.00
 236066,-0.00506668,0.00600114,0.00129142,0.00549724,0.00257432,-0.0012
 2839,-0.07575139,-0.02537224,0.00059886,0.00124103,0.00004852,-0.00095
 685,-0.00002748,-0.00010496,-0.00000307,-0.01637311,0.00898191,-0.0058
 8739,0.00013577,-0.00033588,-0.00023352,0.00979481,-0.00378691,-0.0017
 9223,-0.00451698,-0.00164974,0.00061500,-0.00254688,0.00335461,0.00049
 672,0.00796914,-0.00003688,0.00782777,-0.47379808,0.04379071,-0.015991
 06,0.60065587,0.00064946,-0.00469615,-0.00062048,-0.00318953,0.0006484
 3,0.00062323,-0.00031087,0.00001090,0.00022093,0.00000445,0.00011808,-
 0.00066130,-0.02809103,0.01655618,0.00122589,-0.00035759,0.00032524,0.
 00008782,-0.00003488,0.00001513,0.00005884,0.00145114,-0.00000793,-0.0
 0128758,-0.00013164,0.00003538,0.00005225,0.00249548,-0.00125357,-0.00
 029232,-0.00141349,-0.00059034,0.00015235,-0.00070699,0.00102345,0.000
 11408,-0.00056911,-0.00103542,0.00097777,0.03107919,-0.12325595,0.0082
 5819,-0.08929978,0.13868236,-0.00027824,-0.00067873,0.00469578,0.00045
 379,0.00057919,-0.00101475,0.00024299,-0.00022690,0.00034399,-0.000412
 23,0.00005950,-0.00040276,0.00185623,0.00135319,0.01832852,0.00025121,
 -0.00000287,0.00035424,0.00000135,-0.00001549,-0.00002132,0.00097878,0
 .00010463,-0.00176206,0.00005923,0.00006240,0.00006227,-0.00068468,0.0
 0022720,-0.00129624,0.00021731,0.00008045,0.00037159,0.00006382,-0.000
 20756,0.00012261,0.00064049,0.00132928,-0.00015911,-0.01544829,0.00539
 598,-0.07525469,0.02856700,-0.01387713,0.03516997,-0.01205761,-0.00583
 970,0.00294872,0.00431812,0.00089292,-0.00102845,0.00027544,-0.0023295
 2,-0.00035471,-0.00057211,-0.00154073,0.00006785,0.02270361,-0.0083921
 6,0.00097708,0.00054572,-0.00516406,0.00082833,0.00014204,-0.00026813,
 -0.00000021,-0.00390627,-0.00185392,0.00097234,-0.00021280,-0.00024748
 ,0.00002488,-0.00085927,0.00100697,0.00036557,0.00015266,-0.00000227,-
 0.00002721,-0.00020957,-0.00069512,-0.00001118,0.00059297,0.00053666,-
 0.00008180,-0.16511444,0.10232785,-0.01461947,-0.05827302,0.09016707,-
 0.01383393,0.21098377,0.02006226,0.00018971,-0.00097360,-0.01037500,-0
 .00883840,0.00145285,-0.00368116,0.00434905,0.00080424,0.00456744,-0.0
 0033188,-0.00112125,-0.01304564,-0.08040006,0.01048130,-0.00301781,-0.
 00170215,0.00057933,-0.00014708,0.00007144,0.00007046,-0.01610626,0.00
 756218,-0.00228538,-0.00046574,-0.00067497,-0.00002469,0.01078089,-0.0
 0372447,-0.00206298,-0.00448212,-0.00190221,0.00070845,-0.00265402,0.0
 0406438,0.00051789,0.00450217,-0.00243044,0.00659366,0.11503881,-0.406
 89307,0.04113452,0.06719797,-0.01597987,0.00868413,-0.16979991,0.50925
 598,-0.00056999,0.00027632,0.00098586,-0.00014304,0.00100743,-0.000662
 73,0.00030262,-0.00006972,-0.00007070,-0.00061101,0.00066269,-0.001231
 61,0.00106931,0.01108728,0.01685865,0.00033830,0.00092016,0.00036310,0
 .00000631,0.00002521,0.00012180,0.00210322,-0.00100779,0.00490741,0.00
 010421,0.00013067,0.00010595,-0.00080565,0.00009477,-0.00016375,0.0003
 7835,0.00014478,0.00007914,0.00029671,-0.00022171,-0.00002533,-0.00019
 770,-0.00054844,-0.00029200,-0.01428788,0.04238623,-0.08176157,-0.0115
 6326,0.00661671,0.02399424,0.02306342,-0.06270887,0.03636093,0.0025424
 5,0.00245462,0.00268309,-0.00537808,0.00442433,0.00103083,0.00561428,-
 0.00968783,0.00231119,-0.04286382,0.00335626,0.02189091,-0.01439778,0.
 01623723,0.00985792,-0.00066540,-0.00035187,-0.00012159,-0.00102282,0.
 00053525,-0.00116636,-0.09068699,0.01655647,0.03381910,0.00051476,0.00
 094954,-0.00162432,0.00792669,-0.00142591,-0.00148985,-0.00286778,-0.0
 0184348,0.00036131,-0.00216449,0.00306500,0.00038191,0.00239593,0.0000
 8811,0.00769093,-0.00986668,-0.00724573,-0.00194871,0.00673122,-0.0025
 6782,-0.00073211,0.00079572,0.00303088,0.00032288,0.14405301,-0.003737
 22,-0.00472854,-0.00106998,0.00238770,0.00012264,-0.00055999,-0.002054
 43,-0.00071659,-0.00019793,-0.01120963,0.00728706,0.00589888,0.0231542
 9,-0.00579635,-0.01302735,0.00103749,0.00024817,0.00032954,-0.00034832
 ,0.00015419,-0.00019826,0.01794364,-0.04503120,-0.00784257,-0.00135121
 ,0.00103035,0.00129143,-0.00292403,0.00065245,0.00049094,0.00114453,0.
 00082000,-0.00011252,0.00069647,-0.00087613,-0.00011647,0.00024135,0.0
 0250879,-0.00451820,0.00001469,0.00181016,-0.00183777,0.00110424,-0.01
 035239,-0.00459434,0.00130349,-0.00241962,0.00134816,-0.02763258,0.055
 43703,-0.00079255,-0.00167305,0.00074263,0.00038417,-0.00043636,-0.000
 35480,-0.00047564,0.00241674,0.00139579,0.01481939,-0.00263340,-0.0015
 0581,0.00702577,-0.00337131,-0.00042508,0.00042048,0.00026160,0.000014
 27,0.00040382,-0.00024519,-0.00012544,0.04307678,-0.01262871,-0.041922
 26,-0.00064407,-0.00027405,-0.00049721,-0.00129234,0.00021389,0.000038
 20,0.00059322,0.00023667,-0.00008908,0.00049898,-0.00049687,-0.0000640
 2,0.00716719,-0.00353147,-0.03421085,0.00228616,0.00120263,-0.00044770
 ,-0.00109453,-0.00298993,-0.00010478,0.00004275,-0.00110338,0.00017809
 ,-0.07331646,0.02492710,0.07790249,0.00086303,0.00008945,-0.00016006,-
 0.00183620,0.00078007,0.00027908,0.00123336,-0.00120376,-0.00049485,-0
 .00251759,-0.00063101,-0.00087452,-0.00066038,0.00161342,-0.00074282,0
 .00003162,-0.00003428,0.00000225,0.00000433,-0.00000269,0.00009807,0.0
 0441444,-0.00126143,0.00942645,0.00006258,-0.00000394,0.00015656,0.002
 71914,-0.00055735,-0.00038220,-0.00099839,-0.00061930,0.00012631,-0.00
 070520,0.00101066,0.00012623,-0.02294085,-0.01100565,-0.01142767,0.002
 09665,-0.00201702,-0.00015358,-0.00266948,0.00102473,-0.00275492,-0.00
 098186,0.00195057,0.00018500,0.00034950,-0.00017002,-0.00094233,0.3804
 7785,-0.00018592,0.00001927,-0.00018037,-0.00072392,0.00092840,0.00015
 934,0.00102096,-0.00097227,-0.00036858,-0.00179070,-0.00047102,-0.0003
 6914,0.00025299,0.00162150,-0.00048023,-0.00004368,-0.00001957,0.00002
 916,0.00000328,0.00000229,0.00005010,0.00330036,-0.00116909,0.00535326
 ,0.00004250,0.00001983,0.00009008,0.00116677,-0.00019874,-0.00014182,-
 0.00036971,-0.00028089,0.00003985,-0.00029773,0.00047454,0.00005951,-0
 .01446615,-0.00145261,-0.00684732,-0.00370999,-0.00058977,0.00079516,0
 .00328346,-0.00000958,0.00131650,0.00066906,-0.00020034,-0.00020085,-0
 .00036353,0.00003323,-0.00068368,0.18062173,0.36454380,0.00070308,0.00
 011092,-0.00001160,-0.00061307,-0.00024159,0.00009874,-0.00004211,-0.0
 0002778,-0.00000290,-0.00014019,-0.00001902,0.00005342,-0.00069815,-0.
 00027227,-0.00003523,0.00003625,-0.00001053,-0.00003331,-0.00001702,0.
 00000096,-0.00000775,0.00134173,0.00011952,0.00068710,0.00001487,-0.00
 000300,0.00000919,0.00082405,-0.00022923,-0.00014415,-0.00034627,-0.00
 016628,0.00005002,-0.00022342,0.00030217,0.00004459,-0.00466941,-0.002
 37321,0.00315423,0.00412304,-0.00032817,-0.00090027,-0.00493160,0.0010
 6030,-0.00181544,-0.00144386,0.00153505,0.00021664,-0.00080147,-0.0001
 2240,-0.00055220,0.08891902,-0.22550051,0.30847129,-0.00055794,-0.0001
 1399,0.00048064,0.00267831,-0.00193980,-0.00043989,-0.00243225,0.00241
 368,0.00100761,0.00475030,0.00132694,0.00129868,0.00017760,-0.00383602
 ,0.00114431,0.00002350,0.00006100,-0.00005905,-0.00001604,0.00000116,-
 0.00018720,-0.00892764,0.00250165,-0.01782615,-0.00007814,-0.00000239,
 -0.00025598,-0.00410176,0.00076869,0.00053741,0.00144317,0.00096784,-0
 .00017587,0.00105468,-0.00156079,-0.00018840,0.00895107,0.00201528,0.0
 1577297,0.00273069,0.00341961,-0.00121740,-0.00266422,-0.00056531,-0.0
 0022457,-0.00022106,-0.00140181,0.00024497,-0.00092604,0.00026823,0.00
 179260,-0.32295475,-0.16833910,-0.05786121,0.32158702,0.00016161,-0.00
 000850,0.00018353,0.00105467,-0.00127322,-0.00019203,-0.00145408,0.001
 36796,0.00055451,0.00260987,0.00078112,0.00058241,-0.00005620,-0.00246
 420,0.00086811,0.00004290,0.00002522,-0.00004421,-0.00000900,-0.000001
 04,-0.00008367,-0.00460633,0.00151853,-0.00877584,-0.00003930,-0.00001
 239,-0.00011743,-0.00167770,0.00027748,0.00020598,0.00054099,0.0004141
 8,-0.00006351,0.00041970,-0.00067170,-0.00008223,0.00697932,-0.0056859
 5,0.00814608,0.00453077,0.00094189,-0.00053416,-0.00307850,0.00018969,
 -0.00114553,-0.00087969,0.00013280,0.00031192,-0.00002191,-0.00012008,
 0.00065599,-0.13379526,-0.10781323,-0.00328847,0.16200093,0.12936056,-
 0.00069814,-0.00021532,0.00017739,0.00083307,0.00004080,-0.00014518,-0
 .00015198,0.00024526,0.00006069,0.00040589,0.00016115,-0.00003570,0.00
 048927,-0.00022942,0.00008129,-0.00000307,0.00001883,0.00000052,0.0000
 2478,-0.00000376,0.00000111,-0.00348922,-0.00022511,-0.00280854,-0.000
 01439,0.00000686,-0.00003196,-0.00118366,0.00028637,0.00016927,0.00046
 860,0.00025836,-0.00005645,0.00031203,-0.00043909,-0.00006126,0.004606
 10,0.00154960,-0.00405526,-0.00246130,0.00121972,-0.00018749,0.0014140
 1,-0.00069395,0.00046303,0.00084470,-0.00121564,-0.00005614,0.00074972
 ,-0.00009884,0.00006513,-0.09381309,-0.02936649,-0.05349369,0.06009142
 ,0.00790162,0.05603914,-0.00106186,-0.00007655,0.00005481,0.00067659,0
 .00062899,-0.00011909,0.00035211,-0.00032153,-0.00010073,-0.00038660,-
 0.00009551,0.00003985,0.00115783,0.00088975,-0.00015712,-0.00006860,0.
 00000515,0.00004331,0.00001089,0.00000363,0.00000323,0.00030583,-0.000
 64017,0.00021453,0.00001125,0.00002909,0.00000264,-0.00078872,0.000259
 28,0.00015071,0.00036038,0.00014755,-0.00005270,0.00020745,-0.00026502
 ,-0.00004048,-0.00129781,0.00066037,-0.00176104,-0.00680112,0.00066699
 ,0.00073282,0.00463383,0.00036653,0.00103676,0.00189797,-0.00195442,-0
 .00023677,-0.00008367,0.00013132,0.00004661,-0.03598780,-0.00007069,-0
 .02417428,-0.00051651,-0.03272280,0.03157527,0.03737859,0.00003914,-0.
 00007646,0.00010484,0.00013904,-0.00014169,-0.00004497,-0.00014315,0.0
 0016180,0.00003311,0.00026079,0.00008178,-0.00005272,-0.00027717,-0.00
 027719,0.00007157,0.00001735,0.00000804,0.00000291,0.00000509,-0.00000
 224,0.00000108,-0.00101625,0.00020107,-0.00055398,-0.00000606,-0.00000
 946,-0.00001106,-0.00023583,0.00004452,0.00002548,0.00007564,0.0000507
 9,-0.00000828,0.00006314,-0.00009235,-0.00001437,0.00070211,0.00068371
 ,0.00004488,0.00089841,-0.00052287,-0.00002806,0.00034283,-0.00042362,
 0.00155612,0.00010866,-0.00012805,-0.00025496,0.00044296,-0.00006317,0
 .00015277,-0.03578892,-0.25446576,0.22945353,0.00201420,-0.01695914,0.
 02079905,0.03235802,0.27193030,-0.00054628,0.00001682,-0.00008774,0.00
 032157,0.00034584,-0.00000450,0.00021844,-0.00019758,-0.00009138,-0.00
 025599,-0.00009848,0.00001425,0.00080770,0.00054164,-0.00002663,-0.000
 04034,-0.00000086,0.00003518,0.00000904,0.00000139,0.00000863,0.000323
 23,-0.00034864,0.00068011,0.00000802,0.00001662,0.00000993,-0.00032661
 ,0.00013396,0.00006583,0.00016197,0.00005494,-0.00002581,0.00009060,-0
 .00011747,-0.00001657,-0.00158593,-0.00027773,-0.00108365,-0.00378645,
 0.00012466,0.00058280,0.00200091,0.00097435,-0.00207511,0.00126518,-0.
 00106609,0.00009200,0.00010108,0.00001058,-0.00003736,0.01242707,0.256
 24604,-0.25578869,-0.00393489,-0.00508306,0.00387411,-0.00725833,-0.25
 127693,0.25387459\\-0.00000033,0.00000041,0.00000207,-0.00000003,-0.00
 000071,-0.00000140,0.00000063,-0.00000029,-0.00000561,0.00000128,0.000
 00096,-0.00000557,0.00000003,0.00000161,0.00000302,-0.00000096,-0.0000
 0037,0.00000539,0.00000154,-0.00000053,-0.00000854,0.00000169,0.000001
 78,-0.00000259,0.00000180,0.00000192,-0.00000848,-0.00000006,-0.000002
 17,-0.00000127,0.00000040,-0.00000278,-0.00000485,-0.00000084,-0.00000
 274,0.00000243,-0.00000016,-0.00000299,-0.00000132,-0.00000027,0.00000
 253,0.00000588,-0.00000171,0.00000311,0.00000628,-0.00000119,0.0000023
 8,0.00000903,0.00000071,0.00000602,-0.00000327,-0.00000127,-0.00000319
 ,0.00000297,-0.00000052,-0.00000337,0.00000044,-0.00000074,-0.00000158
 ,0.00000537\\\@


 GOD GAVE US TWO ENDS... ONE TO SIT ON...    
 AND THE OTHER TO THINK WITH...              
 YOUR SUCCESS DEPENDS UPON WHICH END YOU     
 USE THE MOST...                             
                                             
 IT'S A CASE OF HEADS YOU WIN TAILS YOU LOSE.
          SOURCE UNKNOWN(IT'S JUST AS WELL.) 
 Job cpu time:       0 days  1 hours 13 minutes 33.9 seconds.
 File lengths (MBytes):  RWF=    280 Int=      0 D2E=      0 Chk=     17 Scr=      1
 Normal termination of Gaussian 09 at Sat Jul  8 04:31:23 2017.
