 Entering Gaussian System, Link 0=g09
 Input=methane_b3lyp_midix_NMR_b3lyp_dz.gjf
 Output=methane_b3lyp_midix_NMR_b3lyp_dz.out
 Initial command:
 /n/sw/g09_ekwan/g09/l1.exe /scratch/rliu_NMR/Gau-30281.inp -scrdir=/scratch/rliu_NMR/
 Entering Link 1 = /n/sw/g09_ekwan/g09/l1.exe PID=     30282.
  
 Copyright (c) 1988,1990,1992,1993,1995,1998,2003,2009, Gaussian, Inc.
                  All Rights Reserved.
  
 This is part of the Gaussian(R) 09 program.  It is based on
 the Gaussian(R) 03 system (copyright 2003, Gaussian, Inc.),
 the Gaussian(R) 98 system (copyright 1998, Gaussian, Inc.),
 the Gaussian(R) 94 system (copyright 1995, Gaussian, Inc.),
 the Gaussian 92(TM) system (copyright 1992, Gaussian, Inc.),
 the Gaussian 90(TM) system (copyright 1990, Gaussian, Inc.),
 the Gaussian 88(TM) system (copyright 1988, Gaussian, Inc.),
 the Gaussian 86(TM) system (copyright 1986, Carnegie Mellon
 University), and the Gaussian 82(TM) system (copyright 1983,
 Carnegie Mellon University). Gaussian is a federally registered
 trademark of Gaussian, Inc.
  
 This software contains proprietary and confidential information,
 including trade secrets, belonging to Gaussian, Inc.
  
 This software is provided under written license and may be
 used, copied, transmitted, or stored only in accord with that
 written license.
  
 The following legend is applicable only to US Government
 contracts under FAR:
  
                    RESTRICTED RIGHTS LEGEND
  
 Use, reproduction and disclosure by the US Government is
 subject to restrictions as set forth in subparagraphs (a)
 and (c) of the Commercial Computer Software - Restricted
 Rights clause in FAR 52.227-19.
  
 Gaussian, Inc.
 340 Quinnipiac St., Bldg. 40, Wallingford CT 06492
  
  
 ---------------------------------------------------------------
 Warning -- This program may not be used in any manner that
 competes with the business of Gaussian, Inc. or will provide
 assistance to any competitor of Gaussian, Inc.  The licensee
 of this program is prohibited from giving any competitor of
 Gaussian, Inc. access to this program.  By using this program,
 the user acknowledges that Gaussian, Inc. is engaged in the
 business of creating and licensing software in the field of
 computational chemistry and represents and warrants to the
 licensee that it is not a competitor of Gaussian, Inc. and that
 it will not use this program in any manner prohibited above.
 ---------------------------------------------------------------
  

 Cite this work as:
 Gaussian 09, Revision A.02,
 M. J. Frisch, G. W. Trucks, H. B. Schlegel, G. E. Scuseria, 
 M. A. Robb, J. R. Cheeseman, G. Scalmani, V. Barone, B. Mennucci, 
 G. A. Petersson, H. Nakatsuji, M. Caricato, X. Li, H. P. Hratchian, 
 A. F. Izmaylov, J. Bloino, G. Zheng, J. L. Sonnenberg, M. Hada, 
 M. Ehara, K. Toyota, R. Fukuda, J. Hasegawa, M. Ishida, T. Nakajima, 
 Y. Honda, O. Kitao, H. Nakai, T. Vreven, J. A. Montgomery, Jr., 
 J. E. Peralta, F. Ogliaro, M. Bearpark, J. J. Heyd, E. Brothers, 
 K. N. Kudin, V. N. Staroverov, R. Kobayashi, J. Normand, 
 K. Raghavachari, A. Rendell, J. C. Burant, S. S. Iyengar, J. Tomasi, 
 M. Cossi, N. Rega, J. M. Millam, M. Klene, J. E. Knox, J. B. Cross, 
 V. Bakken, C. Adamo, J. Jaramillo, R. Gomperts, R. E. Stratmann, 
 O. Yazyev, A. J. Austin, R. Cammi, C. Pomelli, J. W. Ochterski, 
 R. L. Martin, K. Morokuma, V. G. Zakrzewski, G. A. Voth, 
 P. Salvador, J. J. Dannenberg, S. Dapprich, A. D. Daniels, 
 O. Farkas, J. B. Foresman, J. V. Ortiz, J. Cioslowski, 
 and D. J. Fox, Gaussian, Inc., Wallingford CT, 2009.
 
 ******************************************
 Gaussian 09:  EM64L-G09RevA.02 11-Jun-2009
                 2-Mar-2015 
 ******************************************
 %nprocshared=8
 Will use up to    8 processors via shared memory.
 %mem=4000mb
 --------------------
 #p b3lyp/cc-pvdz NMR
 --------------------
 1/38=1/1;
 2/12=2,17=6,18=5,40=1/2;
 3/5=16,11=2,16=1,25=1,30=1,74=-5/1,2,8,3;
 4//1;
 5/5=2,38=5/2;
 8/6=1,10=90,11=11/1;
 10/13=100,45=16/2;
 6/7=2,8=2,9=2,10=2,28=1/1;
 99/9=1/99;
 Leave Link    1 at Mon Mar  2 15:25:50 2015, MaxMem=  524288000 cpu:       1.1
 (Enter /n/sw/g09_ekwan/g09/l101.exe)
 ---
 NMR
 ---
 Symbolic Z-matrix:
 Charge =  0 Multiplicity = 1
 C                     0.        0.        0. 
 H                     0.6339    0.6339    0.6339 
 H                    -0.6339   -0.6339    0.6339 
 H                    -0.6339    0.6339   -0.6339 
 H                     0.6339   -0.6339   -0.6339 
 
 NAtoms=      5 NQM=      5 NQMF=      0 NMic=      0 NMicF=      0 NTot=      5.
                    Isotopes and Nuclear Properties:
 (Nuclear quadrupole moments (NQMom) in fm**2, nuclear magnetic moments (NMagM)
  in nuclear magnetons)

  Atom         1           2           3           4           5
 IAtWgt=          12           1           1           1           1
 AtmWgt=  12.0000000   1.0078250   1.0078250   1.0078250   1.0078250
 NucSpn=           0           1           1           1           1
 AtZEff=   0.0000000   0.0000000   0.0000000   0.0000000   0.0000000
 NQMom=    0.0000000   0.0000000   0.0000000   0.0000000   0.0000000
 NMagM=    0.0000000   2.7928460   2.7928460   2.7928460   2.7928460
 Leave Link  101 at Mon Mar  2 15:25:50 2015, MaxMem=  524288000 cpu:       1.2
 (Enter /n/sw/g09_ekwan/g09/l202.exe)
                          Input orientation:                          
 ---------------------------------------------------------------------
 Center     Atomic      Atomic             Coordinates (Angstroms)
 Number     Number       Type             X           Y           Z
 ---------------------------------------------------------------------
      1          6           0        0.000000    0.000000    0.000000
      2          1           0        0.633901    0.633901    0.633901
      3          1           0       -0.633901   -0.633901    0.633901
      4          1           0       -0.633901    0.633901   -0.633901
      5          1           0        0.633901   -0.633901   -0.633901
 ---------------------------------------------------------------------
                    Distance matrix (angstroms):
                    1          2          3          4          5
     1  C    0.000000
     2  H    1.097949   0.000000
     3  H    1.097949   1.792943   0.000000
     4  H    1.097949   1.792943   1.792943   0.000000
     5  H    1.097949   1.792943   1.792943   1.792943   0.000000
 Stoichiometry    CH4
 Framework group  TD[O(C),4C3(H)]
 Deg. of freedom     1
 Full point group                 TD      NOp  24
 Largest Abelian subgroup         D2      NOp   4
 Largest concise Abelian subgroup D2      NOp   4
                         Standard orientation:                         
 ---------------------------------------------------------------------
 Center     Atomic      Atomic             Coordinates (Angstroms)
 Number     Number       Type             X           Y           Z
 ---------------------------------------------------------------------
      1          6           0        0.000000    0.000000    0.000000
      2          1           0        0.633901    0.633901    0.633901
      3          1           0       -0.633901   -0.633901    0.633901
      4          1           0       -0.633901    0.633901   -0.633901
      5          1           0        0.633901   -0.633901   -0.633901
 ---------------------------------------------------------------------
 Rotational constants (GHZ):    155.9908743    155.9908743    155.9908743
 Leave Link  202 at Mon Mar  2 15:25:51 2015, MaxMem=  524288000 cpu:       0.0
 (Enter /n/sw/g09_ekwan/g09/l301.exe)
 Standard basis: CC-pVDZ (5D, 7F)
 Ernie: Thresh=  0.10000D-02 Tol=  0.10000D-05 Strict=F.
 Ernie:  2 primitive shells out of 42 were deleted.
 There are    10 symmetry adapted basis functions of A   symmetry.
 There are     8 symmetry adapted basis functions of B1  symmetry.
 There are     8 symmetry adapted basis functions of B2  symmetry.
 There are     8 symmetry adapted basis functions of B3  symmetry.
 Integral buffers will be    131072 words long.
 Raffenetti 2 integral format.
 Two-electron integral symmetry is turned on.
    34 basis functions,    61 primitive gaussians,    35 cartesian basis functions
     5 alpha electrons        5 beta electrons
       nuclear repulsion energy        13.3381219935 Hartrees.
 IExCor=  402 DFT=T Ex+Corr=B3LYP ExCW=0 ScaHFX=  0.200000
 ScaDFX=  0.800000  0.720000  1.000000  0.810000 ScalE2=  1.000000  1.000000
 IRadAn=      0 IRanWt=     -1 IRanGd=            0 ICorTp=0
 NAtoms=    5 NActive=    5 NUniq=    2 SFac= 3.00D+00 NAtFMM=   80 NAOKFM=F Big=F
 Leave Link  301 at Mon Mar  2 15:25:51 2015, MaxMem=  524288000 cpu:       1.0
 (Enter /n/sw/g09_ekwan/g09/l302.exe)
 NPDir=0 NMtPBC=     1 NCelOv=     1 NCel=       1 NClECP=     1 NCelD=      1
         NCelK=      1 NCelE2=     1 NClLst=     1 CellRange=     0.0.
 One-electron integrals computed using PRISM.
 One-electron integral symmetry used in STVInt
 NBasis=    34 RedAO= T  NBF=    10     8     8     8
 NBsUse=    34 1.00D-06 NBFU=    10     8     8     8
 Precomputing XC quadrature grid using
 IXCGrd= 2 IRadAn=           0 IRanWt=          -1 IRanGd=           0 AccXCQ= 1.00D-10.
 NRdTot=     308 NPtTot=       38528 NUsed=       40762 NTot=       40794
 NSgBfM=    35    35    35    35    35 NAtAll=     5     5.
 Leave Link  302 at Mon Mar  2 15:25:51 2015, MaxMem=  524288000 cpu:       2.7
 (Enter /n/sw/g09_ekwan/g09/l308.exe)
 Leave Link  308 at Mon Mar  2 15:25:51 2015, MaxMem=  524288000 cpu:       0.3
 (Enter /n/sw/g09_ekwan/g09/l303.exe)
 DipDrv:  MaxL=1.
 Leave Link  303 at Mon Mar  2 15:25:51 2015, MaxMem=  524288000 cpu:       0.4
 (Enter /n/sw/g09_ekwan/g09/l401.exe)
 Harris functional with IExCor=  402 diagonalized for initial guess.
 ExpMin= 1.22D-01 ExpMax= 6.67D+03 ExpMxC= 2.28D+02 IAcc=1 IRadAn=         1 AccDes= 0.00D+00
 HarFok:  IExCor=  402 AccDes= 0.00D+00 IRadAn=         1 IDoV= 1
 ScaDFX=  1.000000  1.000000  1.000000  1.000000
 FoFCou: FMM=F IPFlag=           0 FMFlag=      100000 FMFlg1=           0
         NFxFlg=           0 DoJE=T BraDBF=F KetDBF=T FulRan=T
         Omega=  0.000000  0.000000  1.000000  0.000000  0.000000 ICntrl=     500 IOpCl=  0
         NMat0=    1 NMatS0=    1 NMatT0=    0 NMatD0=    1 NMtDS0=    0 NMtDT0=    0
         I1Cent=           4 NGrid=           0.
 Petite list used in FoFCou.
 Harris En= -40.5564814420756    
 Initial guess orbital symmetries:
       Occupied  (A1) (A1) (T2) (T2) (T2)
       Virtual   (A1) (T2) (T2) (T2) (T2) (T2) (T2) (T2) (T2) (T2)
                 (A1) (E) (E) (A1) (T1) (T1) (T1) (T2) (T2) (T2)
                 (T2) (T2) (T2) (E) (E) (A1) (T2) (T2) (T2)
 The electronic state of the initial guess is 1-A1.
 Leave Link  401 at Mon Mar  2 15:25:52 2015, MaxMem=  524288000 cpu:       3.6
 (Enter /n/sw/g09_ekwan/g09/l502.exe)
 Closed shell SCF:
 Requested convergence on RMS density matrix=1.00D-08 within 128 cycles.
 Requested convergence on MAX density matrix=1.00D-06.
 Requested convergence on             energy=1.00D-06.
 No special actions if energy rises.
 Using DIIS extrapolation, IDIIS=  1040.
 Integral symmetry usage will be decided dynamically.
        40704 words used for storage of precomputed grid.
 Keep R1 ints in memory in canonical form, NReq=1121406.
 IEnd=       63593 IEndB=       63593 NGot=   524288000 MDV=   524043515
 LenX=   524043515 LenY=   524041849
 Symmetry not used in FoFDir.
 MinBra= 0 MaxBra= 2 Meth= 1.
 IRaf=       0 NMat=   1 IRICut=       1 DoRegI=T DoRafI=F ISym2E= 0 JSym2E=0.
 Integral accuracy reduced to 1.0D-05 until final iterations.

 Cycle   1  Pass 0  IDiag  1:
 E= -40.4283112091117    
 DIIS: error= 6.58D-02 at cycle   1 NSaved=   1.
 NSaved= 1 IEnMin= 1 EnMin= -40.4283112091117     IErMin= 1 ErrMin= 6.58D-02
 ErrMax= 6.58D-02 EMaxC= 1.00D-01 BMatC= 7.74D-02 BMatP= 7.74D-02
 IDIUse=3 WtCom= 3.42D-01 WtEn= 6.58D-01
 Coeff-Com:  0.100D+01
 Coeff-En:   0.100D+01
 Coeff:      0.100D+01
 Gap=     0.378 Goal=   None    Shift=    0.000
 GapD=    0.378 DampG=1.000 DampE=0.500 DampFc=0.5000 IDamp=-1.
 Damping current iteration by 5.00D-01
 RMSDP=1.46D-02 MaxDP=1.45D-01              OVMax= 1.98D-01

 Cycle   2  Pass 0  IDiag  1:
 E= -40.4683818331312     Delta-E=       -0.040070624020 Rises=F Damp=T
 DIIS: error= 7.70D-03 at cycle   2 NSaved=   2.
 NSaved= 2 IEnMin= 2 EnMin= -40.4683818331312     IErMin= 2 ErrMin= 7.70D-03
 ErrMax= 7.70D-03 EMaxC= 1.00D-01 BMatC= 1.20D-03 BMatP= 7.74D-02
 IDIUse=3 WtCom= 9.23D-01 WtEn= 7.70D-02
 Coeff-Com:  0.797D-01 0.920D+00
 Coeff-En:   0.127D+00 0.873D+00
 Coeff:      0.833D-01 0.917D+00
 Gap=     0.454 Goal=   None    Shift=    0.000
 RMSDP=1.38D-03 MaxDP=1.18D-02 DE=-4.01D-02 OVMax= 1.03D-01

 Cycle   3  Pass 0  IDiag  1:
 E= -40.5163528498342     Delta-E=       -0.047971016703 Rises=F Damp=F
 DIIS: error= 6.12D-04 at cycle   3 NSaved=   3.
 NSaved= 3 IEnMin= 3 EnMin= -40.5163528498342     IErMin= 3 ErrMin= 6.12D-04
 ErrMax= 6.12D-04 EMaxC= 1.00D-01 BMatC= 1.07D-05 BMatP= 1.20D-03
 IDIUse=3 WtCom= 9.94D-01 WtEn= 6.12D-03
 Coeff-Com:  0.708D-02-0.499D-01 0.104D+01
 Coeff-En:   0.000D+00 0.000D+00 0.100D+01
 Coeff:      0.704D-02-0.496D-01 0.104D+01
 Gap=     0.462 Goal=   None    Shift=    0.000
 RMSDP=7.42D-05 MaxDP=7.79D-04 DE=-4.80D-02 OVMax= 7.59D-04

 Cycle   4  Pass 0  IDiag  1:
 E= -40.5163621274336     Delta-E=       -0.000009277599 Rises=F Damp=F
 DIIS: error= 5.32D-05 at cycle   4 NSaved=   4.
 NSaved= 4 IEnMin= 4 EnMin= -40.5163621274336     IErMin= 4 ErrMin= 5.32D-05
 ErrMax= 5.32D-05 EMaxC= 1.00D-01 BMatC= 5.16D-08 BMatP= 1.07D-05
 IDIUse=1 WtCom= 1.00D+00 WtEn= 0.00D+00
 Coeff-Com:  0.104D-02-0.734D-03 0.332D-01 0.966D+00
 Coeff:      0.104D-02-0.734D-03 0.332D-01 0.966D+00
 Gap=     0.462 Goal=   None    Shift=    0.000
 RMSDP=6.21D-06 MaxDP=4.29D-05 DE=-9.28D-06 OVMax= 8.07D-05

 Initial convergence to 1.0D-05 achieved.  Increase integral accuracy.
 Cycle   5  Pass 1  IDiag  1:
 E= -40.5163438315005     Delta-E=        0.000018295933 Rises=F Damp=F
 DIIS: error= 8.89D-06 at cycle   1 NSaved=   1.
 NSaved= 1 IEnMin= 1 EnMin= -40.5163438315005     IErMin= 1 ErrMin= 8.89D-06
 ErrMax= 8.89D-06 EMaxC= 1.00D-01 BMatC= 2.55D-09 BMatP= 2.55D-09
 IDIUse=1 WtCom= 1.00D+00 WtEn= 0.00D+00
 Coeff-Com:  0.100D+01
 Coeff:      0.100D+01
 Gap=     0.462 Goal=   None    Shift=    0.000
 RMSDP=6.21D-06 MaxDP=4.29D-05 DE= 1.83D-05 OVMax= 2.83D-05

 Cycle   6  Pass 1  IDiag  1:
 E= -40.5163438359935     Delta-E=       -0.000000004493 Rises=F Damp=F
 DIIS: error= 1.07D-06 at cycle   2 NSaved=   2.
 NSaved= 2 IEnMin= 2 EnMin= -40.5163438359935     IErMin= 2 ErrMin= 1.07D-06
 ErrMax= 1.07D-06 EMaxC= 1.00D-01 BMatC= 3.65D-11 BMatP= 2.55D-09
 IDIUse=1 WtCom= 1.00D+00 WtEn= 0.00D+00
 Coeff-Com: -0.317D-01 0.103D+01
 Coeff:     -0.317D-01 0.103D+01
 Gap=     0.462 Goal=   None    Shift=    0.000
 RMSDP=3.37D-07 MaxDP=2.49D-06 DE=-4.49D-09 OVMax= 2.54D-06

 Cycle   7  Pass 1  IDiag  1:
 E= -40.5163438360119     Delta-E=       -0.000000000018 Rises=F Damp=F
 DIIS: error= 1.05D-06 at cycle   3 NSaved=   3.
 NSaved= 3 IEnMin= 3 EnMin= -40.5163438360119     IErMin= 3 ErrMin= 1.05D-06
 ErrMax= 1.05D-06 EMaxC= 1.00D-01 BMatC= 2.14D-11 BMatP= 3.65D-11
 IDIUse=1 WtCom= 1.00D+00 WtEn= 0.00D+00
 Coeff-Com: -0.163D-01 0.454D+00 0.563D+00
 Coeff:     -0.163D-01 0.454D+00 0.563D+00
 Gap=     0.462 Goal=   None    Shift=    0.000
 RMSDP=1.29D-07 MaxDP=1.41D-06 DE=-1.84D-11 OVMax= 1.76D-06

 Cycle   8  Pass 1  IDiag  1:
 E= -40.5163438360333     Delta-E=       -0.000000000021 Rises=F Damp=F
 DIIS: error= 2.36D-07 at cycle   4 NSaved=   4.
 NSaved= 4 IEnMin= 4 EnMin= -40.5163438360333     IErMin= 4 ErrMin= 2.36D-07
 ErrMax= 2.36D-07 EMaxC= 1.00D-01 BMatC= 1.03D-12 BMatP= 2.14D-11
 IDIUse=1 WtCom= 1.00D+00 WtEn= 0.00D+00
 Coeff-Com: -0.240D-02 0.744D-02 0.182D+00 0.813D+00
 Coeff:     -0.240D-02 0.744D-02 0.182D+00 0.813D+00
 Gap=     0.462 Goal=   None    Shift=    0.000
 RMSDP=2.03D-08 MaxDP=2.38D-07 DE=-2.14D-11 OVMax= 3.09D-07

 Cycle   9  Pass 1  IDiag  1:
 E= -40.5163438360345     Delta-E=       -0.000000000001 Rises=F Damp=F
 DIIS: error= 4.86D-09 at cycle   5 NSaved=   5.
 NSaved= 5 IEnMin= 5 EnMin= -40.5163438360345     IErMin= 5 ErrMin= 4.86D-09
 ErrMax= 4.86D-09 EMaxC= 1.00D-01 BMatC= 3.75D-16 BMatP= 1.03D-12
 IDIUse=1 WtCom= 1.00D+00 WtEn= 0.00D+00
 Coeff-Com:  0.653D-04-0.150D-02-0.275D-02 0.125D-01 0.992D+00
 Coeff:      0.653D-04-0.150D-02-0.275D-02 0.125D-01 0.992D+00
 Gap=     0.462 Goal=   None    Shift=    0.000
 RMSDP=7.08D-10 MaxDP=5.29D-09 DE=-1.25D-12 OVMax= 8.46D-09

 SCF Done:  E(RB3LYP) =  -40.5163438360     A.U. after    9 cycles
             Convg  =    0.7081D-09             -V/T =  2.0111
 KE= 4.007191310478D+01 PE=-1.197044950128D+02 EE= 2.577811607851D+01
 Leave Link  502 at Mon Mar  2 15:25:52 2015, MaxMem=  524288000 cpu:       3.7
 (Enter /n/sw/g09_ekwan/g09/l801.exe)
 Range of M.O.s used for correlation:     1    34
 NBasis=    34 NAE=     5 NBE=     5 NFC=     0 NFV=     0
 NROrb=     34 NOA=     5 NOB=     5 NVA=    29 NVB=    29
 Leave Link  801 at Mon Mar  2 15:25:53 2015, MaxMem=  524288000 cpu:       0.7
 (Enter /n/sw/g09_ekwan/g09/l1002.exe)
 Minotr:  Closed shell wavefunction.
          Direct CPHF calculation.
          Differentiating once with respect to magnetic field using GIAOs.
          Electric field/nuclear overlap derivatives assumed to be zero.
          Using symmetry in CPHF.
          Requested convergence is 1.0D-08 RMS, and 1.0D-07 maximum.
          Secondary convergence is 1.0D-12 RMS, and 1.0D-12 maximum.
          NewPWx=T KeepS1=F KeepF1=F KeepIn=T MapXYZ=F SortEE=F KeepMc=T.
          MDV=     524287956 using IRadAn=       2.
 Generate precomputed XC quadrature information.
          Keep R3 ints in memory in canonical form, NReq=1020859.
 Symmetry not used in FoFDir.
 MinBra= 0 MaxBra= 2 Meth= 1.
 IRaf=       0 NMat=   1 IRICut=       1 DoRegI=T DoRafI=F ISym2E= 0 JSym2E=0.
          Solving linear equations simultaneously, MaxMat=       0.
 FoFCou: FMM=F IPFlag=           0 FMFlag=           0 FMFlg1=           0
         NFxFlg=           0 DoJE=F BraDBF=F KetDBF=T FulRan=T
         Omega=  0.000000  0.000000  1.000000  0.000000  0.000000 ICntrl=    6100 IOpCl=  0
         NMat0=    1 NMatS0=    1 NMatT0=    0 NMatD0=    1 NMtDS0=    0 NMtDT0=    0
         I1Cent=           7 NGrid=           5.
 Symmetry not used in FoFCou.
          There are     3 degrees of freedom in the 1st order CPHF.  IDoFFX=0.
      3 vectors produced by pass  0 Test12= 4.83D-15 3.33D-08 XBig12= 1.20D-01 1.99D-01.
 AX will form     3 AO Fock derivatives at one time.
      3 vectors produced by pass  1 Test12= 4.83D-15 3.33D-08 XBig12= 7.41D-05 4.80D-03.
      3 vectors produced by pass  2 Test12= 4.83D-15 3.33D-08 XBig12= 6.23D-09 4.91D-05.
      3 vectors produced by pass  3 Test12= 4.83D-15 3.33D-08 XBig12= 8.78D-13 4.03D-07.
 Inverted reduced A of dimension    12 with in-core refinement.
 Calculating GIAO nuclear magnetic shielding tensors.
 SCF GIAO Magnetic shielding tensor (ppm):
  1  C    Isotropic =   196.9101   Anisotropy =     0.0000
   XX=   196.9101   YX=     0.0000   ZX=     0.0000
   XY=     0.0000   YY=   196.9101   ZY=     0.0000
   XZ=     0.0000   YZ=     0.0000   ZZ=   196.9101
   Eigenvalues:   196.9101   196.9101   196.9101
  2  H    Isotropic =    31.1067   Anisotropy =     8.7504
   XX=    31.1067   YX=     2.9168   ZX=     2.9168
   XY=     2.9168   YY=    31.1067   ZY=     2.9168
   XZ=     2.9168   YZ=     2.9168   ZZ=    31.1067
   Eigenvalues:    28.1899    28.1899    36.9403
  3  H    Isotropic =    31.1067   Anisotropy =     8.7504
   XX=    31.1067   YX=     2.9168   ZX=    -2.9168
   XY=     2.9168   YY=    31.1067   ZY=    -2.9168
   XZ=    -2.9168   YZ=    -2.9168   ZZ=    31.1067
   Eigenvalues:    28.1899    28.1899    36.9403
  4  H    Isotropic =    31.1067   Anisotropy =     8.7504
   XX=    31.1067   YX=    -2.9168   ZX=     2.9168
   XY=    -2.9168   YY=    31.1067   ZY=    -2.9168
   XZ=     2.9168   YZ=    -2.9168   ZZ=    31.1067
   Eigenvalues:    28.1899    28.1899    36.9403
  5  H    Isotropic =    31.1067   Anisotropy =     8.7504
   XX=    31.1067   YX=    -2.9168   ZX=    -2.9168
   XY=    -2.9168   YY=    31.1067   ZY=     2.9168
   XZ=    -2.9168   YZ=     2.9168   ZZ=    31.1067
   Eigenvalues:    28.1899    28.1899    36.9403
 End of Minotr Frequency-dependent properties file   721 does not exist.
 End of Minotr Frequency-dependent properties file   722 does not exist.
 Leave Link 1002 at Mon Mar  2 15:25:55 2015, MaxMem=  524288000 cpu:      18.1
 (Enter /n/sw/g09_ekwan/g09/l601.exe)
 Copying SCF densities to generalized density rwf, IOpCl= 0 IROHF=0.

 **********************************************************************

            Population analysis using the SCF density.

 **********************************************************************

 Orbital symmetries:
       Occupied  (A1) (A1) (T2) (T2) (T2)
       Virtual   (A1) (T2) (T2) (T2) (T2) (T2) (T2) (T2) (T2) (T2)
                 (A1) (E) (E) (A1) (T1) (T1) (T1) (T2) (T2) (T2)
                 (T2) (T2) (T2) (E) (E) (A1) (T2) (T2) (T2)
 The electronic state is 1-A1.
 Alpha  occ. eigenvalues --  -10.17386  -0.69089  -0.38878  -0.38878  -0.38878
 Alpha virt. eigenvalues --    0.07335   0.14330   0.14330   0.14330   0.41360
 Alpha virt. eigenvalues --    0.41360   0.41360   0.65088   0.65088   0.65088
 Alpha virt. eigenvalues --    0.67928   0.90103   0.90103   1.04171   1.41626
 Alpha virt. eigenvalues --    1.41626   1.41626   1.61201   1.61201   1.61201
 Alpha virt. eigenvalues --    1.92238   1.92238   1.92238   2.23622   2.23622
 Alpha virt. eigenvalues --    2.39688   2.43076   2.43076   2.43076
          Condensed to atoms (all electrons):
              1          2          3          4          5
     1  C    4.498882   0.406599   0.406599   0.406599   0.406599
     2  H    0.406599   0.632059  -0.023326  -0.023326  -0.023326
     3  H    0.406599  -0.023326   0.632059  -0.023326  -0.023326
     4  H    0.406599  -0.023326  -0.023326   0.632059  -0.023326
     5  H    0.406599  -0.023326  -0.023326  -0.023326   0.632059
 Mulliken atomic charges:
              1
     1  C   -0.125277
     2  H    0.031319
     3  H    0.031319
     4  H    0.031319
     5  H    0.031319
 Sum of Mulliken atomic charges =   0.00000
 Mulliken charges with hydrogens summed into heavy atoms:
              1
     1  C    0.000000
 Sum of Mulliken charges with hydrogens summed into heavy atoms =   0.00000
 Electronic spatial extent (au):  <R**2>=             35.7825
 Charge=              0.0000 electrons
 Dipole moment (field-independent basis, Debye):
    X=              0.0000    Y=              0.0000    Z=              0.0000  Tot=              0.0000
 Quadrupole moment (field-independent basis, Debye-Ang):
   XX=             -8.3226   YY=             -8.3226   ZZ=             -8.3226
   XY=              0.0000   XZ=              0.0000   YZ=              0.0000
 Traceless Quadrupole moment (field-independent basis, Debye-Ang):
   XX=              0.0000   YY=              0.0000   ZZ=              0.0000
   XY=              0.0000   XZ=              0.0000   YZ=              0.0000
 Octapole moment (field-independent basis, Debye-Ang**2):
  XXX=              0.0000  YYY=              0.0000  ZZZ=              0.0000  XYY=              0.0000
  XXY=              0.0000  XXZ=              0.0000  XZZ=              0.0000  YZZ=              0.0000
  YYZ=              0.0000  XYZ=              0.5830
 Hexadecapole moment (field-independent basis, Debye-Ang**3):
 XXXX=            -16.3218 YYYY=            -16.3218 ZZZZ=            -16.3218 XXXY=              0.0000
 XXXZ=              0.0000 YYYX=              0.0000 YYYZ=              0.0000 ZZZX=              0.0000
 ZZZY=              0.0000 XXYY=             -4.9825 XXZZ=             -4.9825 YYZZ=             -4.9825
 XXYZ=              0.0000 YYXZ=              0.0000 ZZXY=              0.0000
 N-N= 1.333812199352D+01 E-N=-1.197044948897D+02  KE= 4.007191310478D+01
 Symmetry A    KE= 3.440895240658D+01
 Symmetry B1   KE= 1.887653566068D+00
 Symmetry B2   KE= 1.887653566068D+00
 Symmetry B3   KE= 1.887653566068D+00
 Calculating spin-rotation constants.
 Leave Link  601 at Mon Mar  2 15:25:57 2015, MaxMem=  524288000 cpu:      11.0
 (Enter /n/sw/g09_ekwan/g09/l9999.exe)
 1\1\GINC-DAE23\SP\RB3LYP\CC-pVDZ\C1H4\EKWAN\02-Mar-2015\0\\#p b3lyp/cc
 -pvdz NMR\\NMR\\0,1\C,0,0.,0.,0.\H,0,0.633901,0.633901,0.633901\H,0,-0
 .633901,-0.633901,0.633901\H,0,-0.633901,0.633901,-0.633901\H,0,0.6339
 01,-0.633901,-0.633901\\Version=EM64L-G09RevA.02\State=1-A1\HF=-40.516
 3438\RMSD=7.081e-10\Dipole=0.,0.,0.\Quadrupole=0.,0.,0.,0.,0.,0.\PG=TD
  [O(C1),4C3(H1)]\\@


 CHEMISTRY BEGAN BY SAYING IT WOULD CHANGE THE BASER
 METALS INTO GOLD.  BY NOT DOING THAT IT HAS DONE MUCH
 GREATER THINGS.  --  RALPH WALDO EMERSON
 Job cpu time:  0 days  0 hours  0 minutes 46.4 seconds.
 File lengths (MBytes):  RWF=      5 Int=      0 D2E=      0 Chk=      1 Scr=      1
 Normal termination of Gaussian 09 at Mon Mar  2 15:25:57 2015.
